<VTKFile type='UnstructuredGrid' version='0.1' byte_order='BigEndian'> 
<UnstructuredGrid> 
<Piece NumberOfPoints=' 20000 ' NumberOfCells=' 19701 '>
<Points> 
<DataArray type='Float32' NumberOfComponents='3' Format='ascii'> 
  0.000000   0.000000   0.000000 
  0.009573   0.000000   0.000000 
  0.019145   0.000000   0.000000 
  0.028718   0.000000   0.000000 
  0.038290   0.000000   0.000000 
  0.047863   0.000000   0.000000 
  0.057436   0.000000   0.000000 
  0.067008   0.000000   0.000000 
  0.076581   0.000000   0.000000 
  0.086153   0.000000   0.000000 
  0.095726   0.000000   0.000000 
  0.105299   0.000000   0.000000 
  0.114871   0.000000   0.000000 
  0.124444   0.000000   0.000000 
  0.134016   0.000000   0.000000 
  0.143589   0.000000   0.000000 
  0.153162   0.000000   0.000000 
  0.162734   0.000000   0.000000 
  0.172307   0.000000   0.000000 
  0.181879   0.000000   0.000000 
  0.191452   0.000000   0.000000 
  0.201025   0.000000   0.000000 
  0.210597   0.000000   0.000000 
  0.220170   0.000000   0.000000 
  0.229742   0.000000   0.000000 
  0.239315   0.000000   0.000000 
  0.248888   0.000000   0.000000 
  0.258460   0.000000   0.000000 
  0.268033   0.000000   0.000000 
  0.277605   0.000000   0.000000 
  0.287178   0.000000   0.000000 
  0.296751   0.000000   0.000000 
  0.306323   0.000000   0.000000 
  0.315896   0.000000   0.000000 
  0.325468   0.000000   0.000000 
  0.335041   0.000000   0.000000 
  0.344614   0.000000   0.000000 
  0.354186   0.000000   0.000000 
  0.363759   0.000000   0.000000 
  0.373331   0.000000   0.000000 
  0.382904   0.000000   0.000000 
  0.392477   0.000000   0.000000 
  0.402049   0.000000   0.000000 
  0.411622   0.000000   0.000000 
  0.421195   0.000000   0.000000 
  0.430767   0.000000   0.000000 
  0.440340   0.000000   0.000000 
  0.449912   0.000000   0.000000 
  0.459485   0.000000   0.000000 
  0.469058   0.000000   0.000000 
  0.478630   0.000000   0.000000 
  0.488203   0.000000   0.000000 
  0.497775   0.000000   0.000000 
  0.507348   0.000000   0.000000 
  0.516921   0.000000   0.000000 
  0.526493   0.000000   0.000000 
  0.536066   0.000000   0.000000 
  0.545638   0.000000   0.000000 
  0.555211   0.000000   0.000000 
  0.564784   0.000000   0.000000 
  0.574356   0.000000   0.000000 
  0.583929   0.000000   0.000000 
  0.593501   0.000000   0.000000 
  0.603074   0.000000   0.000000 
  0.612647   0.000000   0.000000 
  0.622219   0.000000   0.000000 
  0.631792   0.000000   0.000000 
  0.641364   0.000000   0.000000 
  0.650937   0.000000   0.000000 
  0.660510   0.000000   0.000000 
  0.670082   0.000000   0.000000 
  0.679655   0.000000   0.000000 
  0.689227   0.000000   0.000000 
  0.698800   0.000000   0.000000 
  0.708373   0.000000   0.000000 
  0.717945   0.000000   0.000000 
  0.727518   0.000000   0.000000 
  0.737090   0.000000   0.000000 
  0.746663   0.000000   0.000000 
  0.756236   0.000000   0.000000 
  0.765808   0.000000   0.000000 
  0.775381   0.000000   0.000000 
  0.784953   0.000000   0.000000 
  0.794526   0.000000   0.000000 
  0.804099   0.000000   0.000000 
  0.813671   0.000000   0.000000 
  0.823244   0.000000   0.000000 
  0.832816   0.000000   0.000000 
  0.842389   0.000000   0.000000 
  0.851962   0.000000   0.000000 
  0.861534   0.000000   0.000000 
  0.871107   0.000000   0.000000 
  0.880679   0.000000   0.000000 
  0.890252   0.000000   0.000000 
  0.899825   0.000000   0.000000 
  0.909397   0.000000   0.000000 
  0.918970   0.000000   0.000000 
  0.928542   0.000000   0.000000 
  0.938115   0.000000   0.000000 
  0.947688   0.000000   0.000000 
  0.000000   0.001905   0.000000 
  0.009573   0.001905   0.000000 
  0.019145   0.001905   0.000000 
  0.028718   0.001905   0.000000 
  0.038290   0.001905   0.000000 
  0.047863   0.001905   0.000000 
  0.057436   0.001905   0.000000 
  0.067008   0.001905   0.000000 
  0.076581   0.001905   0.000000 
  0.086153   0.001905   0.000000 
  0.095726   0.001905   0.000000 
  0.105299   0.001905   0.000000 
  0.114871   0.001905   0.000000 
  0.124444   0.001905   0.000000 
  0.134016   0.001905   0.000000 
  0.143589   0.001905   0.000000 
  0.153162   0.001905   0.000000 
  0.162734   0.001905   0.000000 
  0.172307   0.001905   0.000000 
  0.181879   0.001905   0.000000 
  0.191452   0.001905   0.000000 
  0.201025   0.001905   0.000000 
  0.210597   0.001905   0.000000 
  0.220170   0.001905   0.000000 
  0.229742   0.001905   0.000000 
  0.239315   0.001905   0.000000 
  0.248888   0.001905   0.000000 
  0.258460   0.001905   0.000000 
  0.268033   0.001905   0.000000 
  0.277605   0.001905   0.000000 
  0.287178   0.001905   0.000000 
  0.296751   0.001905   0.000000 
  0.306323   0.001905   0.000000 
  0.315896   0.001905   0.000000 
  0.325468   0.001905   0.000000 
  0.335041   0.001905   0.000000 
  0.344614   0.001905   0.000000 
  0.354186   0.001905   0.000000 
  0.363759   0.001905   0.000000 
  0.373331   0.001905   0.000000 
  0.382904   0.001905   0.000000 
  0.392477   0.001905   0.000000 
  0.402049   0.001905   0.000000 
  0.411622   0.001905   0.000000 
  0.421195   0.001905   0.000000 
  0.430767   0.001905   0.000000 
  0.440340   0.001905   0.000000 
  0.449912   0.001905   0.000000 
  0.459485   0.001905   0.000000 
  0.469058   0.001905   0.000000 
  0.478630   0.001905   0.000000 
  0.488203   0.001905   0.000000 
  0.497775   0.001905   0.000000 
  0.507348   0.001905   0.000000 
  0.516921   0.001905   0.000000 
  0.526493   0.001905   0.000000 
  0.536066   0.001905   0.000000 
  0.545638   0.001905   0.000000 
  0.555211   0.001905   0.000000 
  0.564784   0.001905   0.000000 
  0.574356   0.001905   0.000000 
  0.583929   0.001905   0.000000 
  0.593501   0.001905   0.000000 
  0.603074   0.001905   0.000000 
  0.612647   0.001905   0.000000 
  0.622219   0.001905   0.000000 
  0.631792   0.001905   0.000000 
  0.641364   0.001905   0.000000 
  0.650937   0.001905   0.000000 
  0.660510   0.001905   0.000000 
  0.670082   0.001905   0.000000 
  0.679655   0.001905   0.000000 
  0.689227   0.001905   0.000000 
  0.698800   0.001905   0.000000 
  0.708373   0.001905   0.000000 
  0.717945   0.001905   0.000000 
  0.727518   0.001905   0.000000 
  0.737090   0.001905   0.000000 
  0.746663   0.001905   0.000000 
  0.756236   0.001905   0.000000 
  0.765808   0.001905   0.000000 
  0.775381   0.001905   0.000000 
  0.784953   0.001905   0.000000 
  0.794526   0.001905   0.000000 
  0.804099   0.001905   0.000000 
  0.813671   0.001905   0.000000 
  0.823244   0.001905   0.000000 
  0.832816   0.001905   0.000000 
  0.842389   0.001905   0.000000 
  0.851962   0.001905   0.000000 
  0.861534   0.001905   0.000000 
  0.871107   0.001905   0.000000 
  0.880679   0.001905   0.000000 
  0.890252   0.001905   0.000000 
  0.899825   0.001905   0.000000 
  0.909397   0.001905   0.000000 
  0.918970   0.001905   0.000000 
  0.928542   0.001905   0.000000 
  0.938115   0.001905   0.000000 
  0.947688   0.001905   0.000000 
  0.000000   0.003810   0.000000 
  0.009573   0.003810   0.000000 
  0.019145   0.003810   0.000000 
  0.028718   0.003810   0.000000 
  0.038290   0.003810   0.000000 
  0.047863   0.003810   0.000000 
  0.057436   0.003810   0.000000 
  0.067008   0.003810   0.000000 
  0.076581   0.003810   0.000000 
  0.086153   0.003810   0.000000 
  0.095726   0.003810   0.000000 
  0.105299   0.003810   0.000000 
  0.114871   0.003810   0.000000 
  0.124444   0.003810   0.000000 
  0.134016   0.003810   0.000000 
  0.143589   0.003810   0.000000 
  0.153162   0.003810   0.000000 
  0.162734   0.003810   0.000000 
  0.172307   0.003810   0.000000 
  0.181879   0.003810   0.000000 
  0.191452   0.003810   0.000000 
  0.201025   0.003810   0.000000 
  0.210597   0.003810   0.000000 
  0.220170   0.003810   0.000000 
  0.229742   0.003810   0.000000 
  0.239315   0.003810   0.000000 
  0.248888   0.003810   0.000000 
  0.258460   0.003810   0.000000 
  0.268033   0.003810   0.000000 
  0.277605   0.003810   0.000000 
  0.287178   0.003810   0.000000 
  0.296751   0.003810   0.000000 
  0.306323   0.003810   0.000000 
  0.315896   0.003810   0.000000 
  0.325468   0.003810   0.000000 
  0.335041   0.003810   0.000000 
  0.344614   0.003810   0.000000 
  0.354186   0.003810   0.000000 
  0.363759   0.003810   0.000000 
  0.373331   0.003810   0.000000 
  0.382904   0.003810   0.000000 
  0.392477   0.003810   0.000000 
  0.402049   0.003810   0.000000 
  0.411622   0.003810   0.000000 
  0.421195   0.003810   0.000000 
  0.430767   0.003810   0.000000 
  0.440340   0.003810   0.000000 
  0.449912   0.003810   0.000000 
  0.459485   0.003810   0.000000 
  0.469058   0.003810   0.000000 
  0.478630   0.003810   0.000000 
  0.488203   0.003810   0.000000 
  0.497775   0.003810   0.000000 
  0.507348   0.003810   0.000000 
  0.516921   0.003810   0.000000 
  0.526493   0.003810   0.000000 
  0.536066   0.003810   0.000000 
  0.545638   0.003810   0.000000 
  0.555211   0.003810   0.000000 
  0.564784   0.003810   0.000000 
  0.574356   0.003810   0.000000 
  0.583929   0.003810   0.000000 
  0.593501   0.003810   0.000000 
  0.603074   0.003810   0.000000 
  0.612647   0.003810   0.000000 
  0.622219   0.003810   0.000000 
  0.631792   0.003810   0.000000 
  0.641364   0.003810   0.000000 
  0.650937   0.003810   0.000000 
  0.660510   0.003810   0.000000 
  0.670082   0.003810   0.000000 
  0.679655   0.003810   0.000000 
  0.689227   0.003810   0.000000 
  0.698800   0.003810   0.000000 
  0.708373   0.003810   0.000000 
  0.717945   0.003810   0.000000 
  0.727518   0.003810   0.000000 
  0.737090   0.003810   0.000000 
  0.746663   0.003810   0.000000 
  0.756236   0.003810   0.000000 
  0.765808   0.003810   0.000000 
  0.775381   0.003810   0.000000 
  0.784953   0.003810   0.000000 
  0.794526   0.003810   0.000000 
  0.804099   0.003810   0.000000 
  0.813671   0.003810   0.000000 
  0.823244   0.003810   0.000000 
[...]
<PointData Scalars='scalars'>
<DataArray type='Float32' Name='AR' Format='ascii'> 
  0.600000 
  0.627313 
  0.628269 
  0.629000 
  0.629736 
  0.630525 
  0.631392 
  0.632365 
  0.633478 
  0.634779 
  0.636330 
  0.638217 
  0.640565 
  0.643552 
  0.647448 
  0.652669 
  0.659883 
  0.670186 
  0.685391 
  0.708224 
  0.741296 
  0.782678 
  0.821491 
  0.845586 
  0.854752 
  0.856834 
  0.857118 
  0.857142 
  0.857143 
  0.857143 
  0.857143 
  0.857143 
  0.857143 
  0.857143 
  0.857143 
  0.857143 
  0.857143 
  0.857143 
  0.857143 
  0.857143 
  0.857143 
  0.857143 
  0.857143 
  0.857143 
  0.857143 
  0.857143 
  0.857143 
  0.857143 
  0.857143 
  0.857143 
  0.857143 
  0.857143 
  0.857143 
  0.857143 
  0.857143 
  0.857143 
  0.857143 
  0.857143 
  0.857143 
  0.857143 
  0.857143 
  0.857143 
  0.857143 
  0.857143 
  0.857143 
  0.857143 
  0.857143 
  0.857143 
  0.857143 
  0.857143 
  0.857143 
  0.857143 
  0.857143 
  0.857143 
  0.857143 
  0.857143 
  0.857143 
  0.857143 
  0.857143 
  0.857143 
  0.857143 
  0.857143 
  0.857143 
  0.857143 
  0.857143 
  0.857143 
  0.857143 
  0.857143 
  0.857143 
  0.857143 
  0.857143 
  0.857143 
  0.857143 
  0.857143 
  0.857143 
  0.857143 
  0.857143 
  0.857143 
  0.857143 
  0.857143 
  0.600000 
  0.627313 
  0.628269 
  0.629003 
  0.629741 
  0.630534 
  0.631407 
  0.632388 
  0.633513 
  0.634830 
  0.636403 
  0.638323 
  0.640718 
  0.643774 
  0.647772 
  0.653151 
  0.660610 
  0.671304 
  0.687134 
  0.710891 
  0.744974 
  0.786653 
  0.824405 
  0.846898 
  0.855102 
  0.856889 
  0.857123 
  0.857142 
  0.857143 
  0.857143 
  0.857143 
  0.857143 
  0.857143 
  0.857143 
  0.857143 
  0.857143 
  0.857143 
  0.857143 
  0.857143 
  0.857143 
  0.857143 
  0.857143 
  0.857143 
  0.857143 
  0.857143 
  0.857143 
  0.857143 
  0.857143 
  0.857143 
  0.857143 
  0.857143 
  0.857143 
  0.857143 
  0.857143 
  0.857143 
  0.857143 
  0.857143 
  0.857143 
  0.857143 
  0.857143 
  0.857143 
  0.857143 
  0.857143 
  0.857143 
  0.857143 
  0.857143 
  0.857143 
  0.857143 
  0.857143 
  0.857143 
  0.857143 
  0.857143 
  0.857143 
  0.857143 
  0.857143 
  0.857143 
  0.857143 
  0.857143 
  0.857143 
  0.857143 
  0.857143 
  0.857143 
  0.857143 
  0.857143 
  0.857143 
  0.857143 
  0.857143 
  0.857143 
  0.857143 
  0.857143 
  0.857143 
  0.857143 
  0.857143 
  0.857143 
  0.857143 
  0.857143 
  0.857143 
  0.857143 
  0.857143 
  0.857143 
  0.600000 
  0.627313 
  0.628270 
  0.629005 
  0.629747 
  0.630543 
  0.631422 
  0.632412 
  0.633549 
  0.634883 
  0.636480 
  0.638435 
  0.640879 
  0.644007 
  0.648114 
  0.653658 
  0.661377 
  0.672487 
  0.688976 
  0.713694 
  0.748769 
  0.790625 
  0.827198 
  0.848102 
  0.855409 
  0.856935 
  0.857127 
  0.857142 
  0.857143 
  0.857143 
  0.857143 
  0.857143 
  0.857143 
  0.857143 
  0.857143 
  0.857143 
  0.857143 
  0.857143 
  0.857143 
  0.857143 
  0.857143 
  0.857143 
  0.857143 
  0.857143 
  0.857143 
  0.857143 
  0.857143 
  0.857143 
  0.857143 
  0.857143 
  0.857143 
  0.857143 
  0.857143 
  0.857143 
  0.857143 
  0.857143 
  0.857143 
  0.857143 
  0.857143 
  0.857143 
  0.857143 
  0.857143 
  0.857143 
  0.857143 
  0.857143 
  0.857143 
  0.857143 
  0.857143 
  0.857143 
  0.857143 
  0.857143 
  0.857143 
  0.857143 
  0.857143 
  0.857143 
  0.857143 
  0.857143 
  0.857143 
  0.857143 
  0.857143 
  0.857143 
  0.857143 
  0.857143 
  0.857143 
  0.857143 
  0.857143 
  0.857143 
  0.857143 
  0.857143 
  0.857143 
  0.857143 
  0.857143 
  0.857143 
  0.857143 
  0.857143 
  0.857143 
  0.857143 
  0.857143 
  0.857143 
  0.857143 
  0.600000 
  0.627313 
  0.628271 
  0.629008 
  0.629753 
  0.630554 
  0.631439 
  0.632437 
  0.633587 
  0.634939 
  0.636561 
  0.638552 
  0.641048 
  0.644252 
  0.648474 
  0.654194 
  0.662188 
  0.673737 
  0.690924 
  0.716635 
  0.752674 
  0.794577 
  0.829862 
  0.849200 
  0.855677 
  0.856974 
  0.857131 
  0.857142 
  0.857143 
  0.857143 
  0.857143 
  0.857143 
  0.857143 
  0.857143 
  0.857143 
  0.857143 
  0.857143 
  0.857143 
  0.857143 
  0.857143 
  0.857143 
  0.857143 
  0.857143 
  0.857143 
  0.857143 
  0.857143 
  0.857143 
  0.857143 
  0.857143 
  0.857143 
  0.857143 
  0.857143 
  0.857143 
  0.857143 
  0.857143 
  0.857143 
  0.857143 
  0.857143 
  0.857143 
  0.857143 
  0.857143 
  0.857143 
  0.857143 
  0.857143 
  0.857143 
  0.857143 
  0.857143 
  0.857143 
  0.857143 
  0.857143 
  0.857143 
  0.857143 
  0.857143 
  0.857143 
  0.857143 
  0.857143 
  0.857143 
  0.857143 
  0.857143 
  0.857143 
  0.857143 
  0.857143 
  0.857143 
  0.857143 
  0.857143 
  0.857143 
  0.857143 
  0.857143 
  0.857143 
  0.857143 
  0.857143 
  0.857143 
  0.857143 
  0.857143 
  0.857143 
  0.857143 
  0.857143 
  0.857143 
  0.857143 
  0.857143 
  0.600000 
  0.627313 
  0.628273 
  0.629011 
  0.629759 
  0.630565 
  0.631456 
  0.632464 
  0.633627 
  0.634998 
  0.636647 
  0.638674 
  0.641225 
  0.644510 
  0.648853 
  0.654758 
  0.663043 
  0.675059 
  0.692981 
  0.719716 
  0.756679 
  0.798492 
  0.832390 
  0.850196 
  0.855909 
  0.857007 
  0.857133 
  0.857142 
  0.857143 
  0.857143 
  0.857143 
  0.857143 
  0.857143 
  0.857143 
  0.857143 
  0.857143 
  0.857143 
  0.857143 
  0.857143 
  0.857143 
  0.857143 
  0.857143 
  0.857143 
  0.857143 
  0.857143 
  0.857143 
  0.857143 
  0.857143 
  0.857143 
  0.857143 
  0.857143 
  0.857143 
  0.857143 
  0.857143 
  0.857143 
  0.857143 
  0.857143 
  0.857143 
  0.857143 
  0.857143 
  0.857143 
  0.857143 
  0.857143 
  0.857143 
  0.857143 
  0.857143 
  0.857143 
  0.857143 
  0.857143 
  0.857143 
  0.857143 
  0.857143 
  0.857143 
  0.857143 
  0.857143 
  0.857143 
  0.857143 
  0.857143 
  0.857143 
  0.857143 
  0.857143 
  0.857143 
  0.857143 
  0.857143 
  0.857143 
  0.857143 
  0.857143 
  0.857143 
  0.857143 
  0.857143 
  0.857143 
  0.857143 
  0.857143 
  0.857143 
  0.857143 
  0.857143 
  0.857143 
  0.857143 
  0.857143 
  0.857143 
  0.600000 
  0.627314 
  0.628274 
  0.629015 
  0.629766 
  0.630576 
  0.631475 
  0.632493 
  0.633670 
  0.635059 
  0.636736 
  0.638803 
  0.641411 
  0.644781 
  0.649251 
  0.655352 
  0.663946 
  0.676456 
  0.695153 
  0.722939 
  0.760774 
  0.802353 
  0.834778 
  0.851095 
  0.856110 
  0.857033 
  0.857136 
  0.857143 
  0.857143 
  0.857143 
  0.857143 
  0.857143 
  0.857143 
  0.857143 
  0.857143 
  0.857143 
  0.857143 
  0.857143 
  0.857143 
  0.857143 
  0.857143 
  0.857143 
  0.857143 
  0.857143 
  0.857143 
  0.857143 
  0.857143 
  0.857143 
  0.857143 
  0.857143 
  0.857143 
  0.857143 
  0.857143 
  0.857143 
  0.857143 
  0.857143 
  0.857143 
  0.857143 
  0.857143 
  0.857143 
  0.857143 
  0.857143 
  0.857143 
  0.857143 
  0.857143 
  0.857143 
  0.857143 
  0.857143 
  0.857143 
  0.857143 
  0.857143 
  0.857143 
  0.857143 
  0.857143 
  0.857143 
  0.857143 
  0.857143 
  0.857143 
  0.857143 
  0.857143 
  0.857143 
  0.857143 
  0.857143 
  0.857143 
  0.857143 
  0.857143 
  0.857143 
  0.857143 
  0.857143 
  0.857143 
  0.857143 
  0.857143 
  0.857143 
  0.857143 
  0.857143 
  0.857143 
  0.857143 
  0.857143 
  0.857143 
  0.857143 
  0.600000 
  0.627314 
  0.628276 
  0.629019 
  0.629773 
  0.630589 
  0.631495 
  0.632523 
  0.633714 
  0.635124 
  0.636830 
  0.638938 
  0.641606 
  0.645065 
  0.649669 
  0.655978 
  0.664899 
  0.677933 
  0.697444 
  0.726302 
  0.764946 
  0.806143 
  0.837020 
  0.851902 
  0.856283 
  0.857055 
  0.857137 
  0.857143 
  0.857143 
  0.857143 
  0.857143 
  0.857143 
  0.857143 
  0.857143 
  0.857143 
  0.857143 
  0.857143 
  0.857143 
  0.857143 
  0.857143 
  0.857143 
  0.857143 
  0.857143 
  0.857143 
  0.857143 
  0.857143 
  0.857143 
  0.857143 
  0.857143 
  0.857143 
  0.857143 
  0.857143 
  0.857143 
  0.857143 
  0.857143 
  0.857143 
  0.857143 
  0.857143 
  0.857143 
  0.857143 
  0.857143 
  0.857143 
  0.857143 
  0.857143 
  0.857143 
  0.857143 
  0.857143 
  0.857143 
  0.857143 
  0.857143 
  0.857143 
  0.857143 
  0.857143 
  0.857143 
  0.857143 
  0.857143 
  0.857143 
  0.857143 
  0.857143 
  0.857143 
  0.857143 
  0.857143 
  0.857143 
  0.857143 
  0.857143 
  0.857143 
  0.857143 
  0.857143 
  0.857143 
  0.857143 
  0.857143 
  0.857143 
  0.857143 
  0.857143 
  0.857143 
  0.857143 
  0.857143 
  0.857143 
  0.857143 
  0.857143 
  0.600000 
  0.627314 
  0.628278 
  0.629023 
  0.629781 
  0.630602 
  0.631516 
  0.632555 
  0.633761 
  0.635192 
  0.636928 
  0.639080 
  0.641811 
  0.645364 
  0.650110 
  0.656637 
  0.665905 
  0.679494 
  0.699859 
  0.729807 
  0.769181 
  0.809846 
  0.839116 
  0.852624 
  0.856430 
  0.857073 
  0.857139 
  0.857143 
  0.857143 
  0.857143 
  0.857143 
  0.857143 
  0.857143 
  0.857143 
  0.857143 
  0.857143 
  0.857143 
  0.857143 
  0.857143 
  0.857143 
  0.857143 
  0.857143 
  0.857143 
  0.857143 
  0.857143 
  0.857143 
  0.857143 
  0.857143 
  0.857143 
  0.857143 
  0.857143 
  0.857143 
  0.857143 
  0.857143 
  0.857143 
  0.857143 
  0.857143 
  0.857143 
  0.857143 
  0.857143 
  0.857143 
  0.857143 
  0.857143 
  0.857143 
  0.857143 
  0.857143 
  0.857143 
  0.857143 
  0.857143 
  0.857143 
  0.857143 
  0.857143 
  0.857143 
  0.857143 
  0.857143 
  0.857143 
  0.857143 
  0.857143 
  0.857143 
  0.857143 
  0.857143 
  0.857143 
  0.857143 
  0.857143 
  0.857143 
  0.857143 
  0.857143 
  0.857143 
  0.857143 
  0.857143 
  0.857143 
  0.857143 
  0.857143 
  0.857143 
  0.857143 
  0.857143 
  0.857143 
  0.857143 
  0.857143 
  0.857143 
  0.600000 
  0.627315 
  0.628280 
  0.629028 
  0.629790 
  0.630616 
  0.631538 
  0.632588 
  0.633810 
  0.635263 
  0.637031 
  0.639228 
  0.642026 
  0.645677 
  0.650572 
  0.657331 
  0.666967 
  0.681143 
  0.702403 
  0.733450 
  0.773464 
  0.813447 
  0.841065 
  0.853264 
  0.856555 
  0.857088 
  0.857140 
  0.857143 
  0.857143 
  0.857143 
  0.857143 
  0.857143 
  0.857143 
  0.857143 
  0.857143 
  0.857143 
  0.857143 
  0.857143 
  0.857143 
  0.857143 
  0.857143 
  0.857143 
  0.857143 
  0.857143 
  0.857143 
  0.857143 
  0.857143 
  0.857143 
  0.857143 
  0.857143 
  0.857143 
  0.857143 
  0.857143 
  0.857143 
  0.857143 
  0.857143 
  0.857143 
  0.857143 
  0.857143 
  0.857143 
  0.857143 
  0.857143 
  0.857143 
  0.857143 
  0.857143 
  0.857143 
  0.857143 
  0.857143 
  0.857143 
  0.857143 
  0.857143 
  0.857143 
  0.857143 
  0.857143 
  0.857143 
  0.857143 
  0.857143 
  0.857143 
  0.857143 
  0.857143 
  0.857143 
  0.857143 
  0.857143 
  0.857143 
  0.857143 
  0.857143 
  0.857143 
  0.857143 
  0.857143 
  0.857143 
  0.857143 
  0.857143 
  0.857143 
  0.857143 
  0.857143 
  0.857143 
  0.857143 
  0.857143 
  0.857143 
  0.857143 
  0.600000 
  0.627315 
  0.628282 
  0.629032 
  0.629798 
  0.630631 
  0.631561 
  0.632623 
  0.633861 
  0.635338 
  0.637138 
  0.639384 
  0.642251 
  0.646006 
  0.651059 
  0.658063 
  0.668088 
  0.682885 
  0.705080 
  0.737228 
  0.777779 
  0.816931 
  0.842868 
  0.853830 
  0.856661 
  0.857100 
  0.857140 
  0.857143 
  0.857143 
  0.857143 
  0.857143 
  0.857143 
  0.857143 
  0.857143 
  0.857143 
  0.857143 
  0.857143 
  0.857143 
  0.857143 
  0.857143 
  0.857143 
  0.857143 
  0.857143 
  0.857143 
  0.857143 
  0.857143 
  0.857143 
  0.857143 
  0.857143 
  0.857143 
  0.857143 
  0.857143 
  0.857143 
  0.857143 
  0.857143 
  0.857143 
  0.857143 
  0.857143 
  0.857143 
  0.857143 
  0.857143 
  0.857143 
  0.857143 
  0.857143 
  0.857143 
  0.857143 
  0.857143 
  0.857143 
  0.857143 
  0.857143 
  0.857143 
  0.857143 
  0.857143 
  0.857143 
  0.857143 
  0.857143 
  0.857143 
  0.857143 
  0.857143 
  0.857143 
  0.857143 
  0.857143 
  0.857143 
  0.857143 
  0.857143 
  0.857143 
  0.857143 
  0.857143 
  0.857143 
  0.857143 
  0.857143 
  0.857143 
  0.857143 
  0.857143 
  0.857143 
  0.857143 
  0.857143 
  0.857143 
  0.857143 
  0.857143 
  0.600000 
  0.627316 
  0.628284 
  0.629038 
  0.629808 
  0.630647 
  0.631585 
  0.632659 
  0.633915 
  0.635416 
  0.637251 
  0.639546 
  0.642487 
  0.646351 
  0.651570 
  0.658833 
  0.669270 
  0.684724 
  0.707894 
  0.741136 
  0.782108 
  0.820286 
  0.844526 
  0.854328 
  0.856750 
  0.857109 
  0.857141 
  0.857143 
  0.857143 
  0.857143 
  0.857143 
  0.857143 
  0.857143 
  0.857143 
  0.857143 
  0.857143 
  0.857143 
  0.857143 
  0.857143 
  0.857143 
  0.857143 
  0.857143 
  0.857143 
  0.857143 
  0.857143 
  0.857143 
  0.857143 
  0.857143 
  0.857143 
  0.857143 
  0.857143 
  0.857143 
  0.857143 
  0.857143 
  0.857143 
  0.857143 
  0.857143 
  0.857143 
  0.857143 
  0.857143 
  0.857143 
  0.857143 
  0.857143 
  0.857143 
  0.857143 
  0.857143 
  0.857143 
  0.857143 
  0.857143 
  0.857143 
  0.857143 
  0.857143 
  0.857143 
  0.857143 
  0.857143 
  0.857143 
  0.857143 
  0.857143 
  0.857143 
  0.857143 
  0.857143 
  0.857143 
  0.857143 
  0.857143 
  0.857143 
  0.857143 
  0.857143 
  0.857143 
  0.857143 
  0.857143 
  0.857143 
  0.857143 
  0.857143 
  0.857143 
  0.857143 
  0.857143 
  0.857143 
  0.857143 
  0.857143 
  0.857143 
  0.600000 
  0.627316 
  0.628286 
  0.629043 
  0.629818 
  0.630663 
  0.631611 
  0.632697 
  0.633971 
  0.635497 
  0.637369 
  0.639716 
  0.642734 
  0.646713 
  0.652108 
  0.659645 
  0.670519 
  0.686667 
  0.710849 
  0.745167 
  0.786434 
  0.823500 
  0.846044 
  0.854763 
  0.856824 
  0.857116 
  0.857142 
  0.857143 
  0.857143 
  0.857143 
  0.857143 
  0.857143 
  0.857143 
  0.857143 
  0.857143 
  0.857143 
  0.857143 
  0.857143 
  0.857143 
  0.857143 
  0.857143 
  0.857143 
  0.857143 
  0.857143 
  0.857143 
  0.857143 
  0.857143 
  0.857143 
  0.857143 
  0.857143 
  0.857143 
  0.857143 
  0.857143 
  0.857143 
  0.857143 
  0.857143 
  0.857143 
  0.857143 
  0.857143 
  0.857143 
  0.857143 
  0.857143 
  0.857143 
  0.857143 
  0.857143 
  0.857143 
  0.857143 
  0.857143 
  0.857143 
  0.857143 
  0.857143 
  0.857143 
  0.857143 
  0.857143 
  0.857143 
  0.857143 
  0.857143 
  0.857143 
  0.857143 
  0.857143 
  0.857143 
  0.857143 
  0.857143 
  0.857143 
  0.857143 
  0.857143 
  0.857143 
  0.857143 
  0.857143 
  0.857143 
  0.857143 
  0.857143 
  0.857143 
  0.857143 
  0.857143 
  0.857143 
  0.857143 
  0.857143 
  0.857143 
  0.857143 
  0.600000 
  0.627317 
  0.628289 
  0.629049 
  0.629828 
  0.630680 
  0.631637 
  0.632737 
  0.634029 
  0.635582 
  0.637492 
  0.639894 
  0.642993 
  0.647093 
  0.652673 
  0.660501 
  0.671838 
  0.688718 
  0.713948 
  0.749315 
  0.790737 
  0.826563 
  0.847425 
  0.855141 
  0.856885 
  0.857122 
  0.857142 
  0.857143 
  0.857143 
  0.857143 
  0.857143 
  0.857143 
  0.857143 
  0.857143 
  0.857143 
  0.857143 
  0.857143 
  0.857143 
  0.857143 
  0.857143 
  0.857143 
  0.857143 
  0.857143 
  0.857143 
  0.857143 
  0.857143 
  0.857143 
  0.857143 
  0.857143 
  0.857143 
  0.857143 
  0.857143 
  0.857143 
  0.857143 
  0.857143 
  0.857143 
  0.857143 
  0.857143 
  0.857143 
  0.857143 
  0.857143 
  0.857143 
  0.857143 
  0.857143 
  0.857143 
  0.857143 
  0.857143 
  0.857143 
  0.857143 
  0.857143 
  0.857143 
  0.857143 
  0.857143 
  0.857143 
  0.857143 
  0.857143 
  0.857143 
  0.857143 
  0.857143 
  0.857143 
  0.857143 
  0.857143 
  0.857143 
  0.857143 
  0.857143 
  0.857143 
  0.857143 
  0.857143 
  0.857143 
  0.857143 
  0.857143 
  0.857143 
  0.857143 
  0.857143 
  0.857143 
  0.857143 
  0.857143 
  0.857143 
  0.857143 
  0.857143 
  0.600000 
  0.627317 
  0.628292 
  0.629055 
  0.629839 
  0.630698 
  0.631665 
  0.632779 
  0.634091 
  0.635671 
  0.637620 
  0.640080 
  0.643264 
  0.647491 
  0.653267 
  0.661402 
  0.673229 
  0.690882 
  0.717193 
  0.753568 
  0.794999 
  0.829467 
  0.848675 
  0.855467 
  0.856936 
  0.857127 
  0.857142 
  0.857143 
  0.857143 
  0.857143 
  0.857143 
  0.857143 
  0.857143 
  0.857143 
  0.857143 
  0.857143 
  0.857143 
  0.857143 
  0.857143 
  0.857143 
  0.857143 
  0.857143 
  0.857143 
  0.857143 
  0.857143 
  0.857143 
  0.857143 
  0.857143 
  0.857143 
  0.857143 
  0.857143 
  0.857143 
  0.857143 
  0.857143 
  0.857143 
  0.857143 
  0.857143 
  0.857143 
  0.857143 
  0.857143 
  0.857143 
  0.857143 
  0.857143 
  0.857143 
  0.857143 
  0.857143 
  0.857143 
  0.857143 
  0.857143 
  0.857143 
  0.857143 
  0.857143 
  0.857143 
  0.857143 
  0.857143 
  0.857143 
  0.857143 
  0.857143 
  0.857143 
  0.857143 
  0.857143 
  0.857143 
  0.857143 
  0.857143 
  0.857143 
  0.857143 
  0.857143 
  0.857143 
  0.857143 
  0.857143 
  0.857143 
  0.857143 
  0.857143 
  0.857143 
  0.857143 
  0.857143 
  0.857143 
  0.857143 
  0.857143 
  0.857143 
  0.600000 
  0.627318 
  0.628295 
  0.629062 
  0.629851 
  0.630717 
  0.631694 
  0.632822 
  0.634155 
  0.635764 
  0.637755 
  0.640275 
  0.643547 
  0.647909 
  0.653891 
  0.662352 
  0.674699 
  0.693165 
  0.720586 
  0.757916 
  0.799201 
  0.832206 
  0.849801 
  0.855748 
  0.856978 
  0.857131 
  0.857142 
  0.857143 
  0.857143 
  0.857143 
  0.857143 
  0.857143 
  0.857143 
  0.857143 
  0.857143 
  0.857143 
  0.857143 
  0.857143 
  0.857143 
  0.857143 
  0.857143 
  0.857143 
  0.857143 
  0.857143 
  0.857143 
  0.857143 
  0.857143 
  0.857143 
  0.857143 
  0.857143 
  0.857143 
  0.857143 
  0.857143 
  0.857143 
  0.857143 
  0.857143 
  0.857143 
  0.857143 
  0.857143 
  0.857143 
  0.857143 
  0.857143 
  0.857143 
  0.857143 
  0.857143 
  0.857143 
  0.857143 
  0.857143 
  0.857143 
  0.857143 
  0.857143 
  0.857143 
  0.857143 
  0.857143 
  0.857143 
  0.857143 
  0.857143 
  0.857143 
  0.857143 
  0.857143 
  0.857143 
  0.857143 
  0.857143 
  0.857143 
  0.857143 
  0.857143 
  0.857143 
  0.857143 
  0.857143 
  0.857143 
  0.857143 
  0.857143 
  0.857143 
  0.857143 
  0.857143 
  0.857143 
  0.857143 
  0.857143 
  0.857143 
  0.857143 
  0.600000 
  0.627319 
  0.628298 
  0.629069 
  0.629863 
  0.630737 
  0.631725 
  0.632868 
  0.634221 
  0.635861 
  0.637895 
  0.640479 
  0.643845 
  0.648348 
  0.654548 
  0.663353 
  0.676251 
  0.695572 
  0.724127 
  0.762345 
  0.803323 
  0.834776 
  0.850809 
  0.855988 
  0.857012 
  0.857134 
  0.857142 
  0.857143 
  0.857143 
  0.857143 
  0.857143 
  0.857143 
  0.857143 
  0.857143 
  0.857143 
  0.857143 
  0.857143 
  0.857143 
  0.857143 
  0.857143 
  0.857143 
  0.857143 
  0.857143 
  0.857143 
  0.857143 
  0.857143 
  0.857143 
  0.857143 
  0.857143 
  0.857143 
  0.857143 
  0.857143 
  0.857143 
  0.857143 
  0.857143 
  0.857143 
  0.857143 
  0.857143 
  0.857143 
  0.857143 
  0.857143 
  0.857143 
  0.857143 
  0.857143 
  0.857143 
  0.857143 
  0.857143 
  0.857143 
  0.857143 
  0.857143 
  0.857143 
  0.857143 
  0.857143 
  0.857143 
  0.857143 
  0.857143 
  0.857143 
  0.857143 
  0.857143 
  0.857143 
  0.857143 
  0.857143 
  0.857143 
  0.857143 
  0.857143 
  0.857143 
  0.857143 
  0.857143 
  0.857143 
  0.857143 
  0.857143 
  0.857143 
  0.857143 
  0.857143 
  0.857143 
  0.857143 
  0.857143 
  0.857143 
  0.857143 
  0.857143 
  0.600000 
  0.627320 
  0.628302 
  0.629076 
  0.629876 
  0.630758 
  0.631756 
  0.632915 
  0.634291 
  0.635962 
  0.638041 
  0.640691 
  0.644156 
  0.648808 
  0.655239 
  0.664409 
  0.677889 
  0.698109 
  0.727815 
  0.766840 
  0.807348 
  0.837173 
  0.851706 
  0.856192 
  0.857040 
  0.857136 
  0.857143 
  0.857143 
  0.857143 
  0.857143 
  0.857143 
  0.857143 
  0.857143 
  0.857143 
  0.857143 
  0.857143 
  0.857143 
  0.857143 
  0.857143 
  0.857143 
  0.857143 
  0.857143 
  0.857143 
  0.857143 
  0.857143 
  0.857143 
  0.857143 
  0.857143 
  0.857143 
  0.857143 
  0.857143 
  0.857143 
  0.857143 
  0.857143 
  0.857143 
  0.857143 
  0.857143 
  0.857143 
  0.857143 