<VTKFile type='UnstructuredGrid' version='0.1' byte_order='BigEndian'> 
<UnstructuredGrid> 
<Piece NumberOfPoints=' 20200 ' NumberOfCells=' 19900 '>
<Points> 
<DataArray type='Float32' NumberOfComponents='3' Format='ascii'> 
  0.000000   0.000000   0.000000 
  0.009477   0.000000   0.000000 
  0.018954   0.000000   0.000000 
  0.028431   0.000000   0.000000 
  0.037908   0.000000   0.000000 
  0.047384   0.000000   0.000000 
  0.056861   0.000000   0.000000 
  0.066338   0.000000   0.000000 
  0.075815   0.000000   0.000000 
  0.085292   0.000000   0.000000 
  0.094769   0.000000   0.000000 
  0.104246   0.000000   0.000000 
  0.113723   0.000000   0.000000 
  0.123199   0.000000   0.000000 
  0.132676   0.000000   0.000000 
  0.142153   0.000000   0.000000 
  0.151630   0.000000   0.000000 
  0.161107   0.000000   0.000000 
  0.170584   0.000000   0.000000 
  0.180061   0.000000   0.000000 
  0.189538   0.000000   0.000000 
  0.199014   0.000000   0.000000 
  0.208491   0.000000   0.000000 
  0.217968   0.000000   0.000000 
  0.227445   0.000000   0.000000 
  0.236922   0.000000   0.000000 
  0.246399   0.000000   0.000000 
  0.255876   0.000000   0.000000 
  0.265353   0.000000   0.000000 
  0.274829   0.000000   0.000000 
  0.284306   0.000000   0.000000 
  0.293783   0.000000   0.000000 
  0.303260   0.000000   0.000000 
  0.312737   0.000000   0.000000 
  0.322214   0.000000   0.000000 
  0.331691   0.000000   0.000000 
  0.341168   0.000000   0.000000 
  0.350644   0.000000   0.000000 
  0.360121   0.000000   0.000000 
  0.369598   0.000000   0.000000 
  0.379075   0.000000   0.000000 
  0.388552   0.000000   0.000000 
  0.398029   0.000000   0.000000 
  0.407506   0.000000   0.000000 
  0.416983   0.000000   0.000000 
  0.426459   0.000000   0.000000 
  0.435936   0.000000   0.000000 
  0.445413   0.000000   0.000000 
  0.454890   0.000000   0.000000 
  0.464367   0.000000   0.000000 
  0.473844   0.000000   0.000000 
  0.483321   0.000000   0.000000 
  0.492798   0.000000   0.000000 
  0.502274   0.000000   0.000000 
  0.511751   0.000000   0.000000 
  0.521228   0.000000   0.000000 
  0.530705   0.000000   0.000000 
  0.540182   0.000000   0.000000 
  0.549659   0.000000   0.000000 
  0.559136   0.000000   0.000000 
  0.568613   0.000000   0.000000 
  0.578089   0.000000   0.000000 
  0.587566   0.000000   0.000000 
  0.597043   0.000000   0.000000 
  0.606520   0.000000   0.000000 
  0.615997   0.000000   0.000000 
  0.625474   0.000000   0.000000 
  0.634951   0.000000   0.000000 
  0.644428   0.000000   0.000000 
  0.653904   0.000000   0.000000 
  0.663381   0.000000   0.000000 
  0.672858   0.000000   0.000000 
  0.682335   0.000000   0.000000 
  0.691812   0.000000   0.000000 
  0.701289   0.000000   0.000000 
  0.710766   0.000000   0.000000 
  0.720243   0.000000   0.000000 
  0.729719   0.000000   0.000000 
  0.739196   0.000000   0.000000 
  0.748673   0.000000   0.000000 
  0.758150   0.000000   0.000000 
  0.767627   0.000000   0.000000 
  0.777104   0.000000   0.000000 
  0.786581   0.000000   0.000000 
  0.796058   0.000000   0.000000 
  0.805534   0.000000   0.000000 
  0.815011   0.000000   0.000000 
  0.824488   0.000000   0.000000 
  0.833965   0.000000   0.000000 
  0.843442   0.000000   0.000000 
  0.852919   0.000000   0.000000 
  0.862396   0.000000   0.000000 
  0.871873   0.000000   0.000000 
  0.881350   0.000000   0.000000 
  0.890826   0.000000   0.000000 
  0.900303   0.000000   0.000000 
  0.909780   0.000000   0.000000 
  0.919257   0.000000   0.000000 
  0.928734   0.000000   0.000000 
  0.938211   0.000000   0.000000 
  0.947688   0.000000   0.000000 
  0.000000   0.001905   0.000000 
  0.009477   0.001905   0.000000 
  0.018954   0.001905   0.000000 
  0.028431   0.001905   0.000000 
  0.037908   0.001905   0.000000 
  0.047384   0.001905   0.000000 
  0.056861   0.001905   0.000000 
  0.066338   0.001905   0.000000 
  0.075815   0.001905   0.000000 
  0.085292   0.001905   0.000000 
  0.094769   0.001905   0.000000 
  0.104246   0.001905   0.000000 
  0.113723   0.001905   0.000000 
  0.123199   0.001905   0.000000 
  0.132676   0.001905   0.000000 
  0.142153   0.001905   0.000000 
  0.151630   0.001905   0.000000 
  0.161107   0.001905   0.000000 
  0.170584   0.001905   0.000000 
  0.180061   0.001905   0.000000 
  0.189538   0.001905   0.000000 
  0.199014   0.001905   0.000000 
  0.208491   0.001905   0.000000 
  0.217968   0.001905   0.000000 
  0.227445   0.001905   0.000000 
  0.236922   0.001905   0.000000 
  0.246399   0.001905   0.000000 
  0.255876   0.001905   0.000000 
  0.265353   0.001905   0.000000 
  0.274829   0.001905   0.000000 
  0.284306   0.001905   0.000000 
  0.293783   0.001905   0.000000 
  0.303260   0.001905   0.000000 
  0.312737   0.001905   0.000000 
  0.322214   0.001905   0.000000 
  0.331691   0.001905   0.000000 
  0.341168   0.001905   0.000000 
  0.350644   0.001905   0.000000 
  0.360121   0.001905   0.000000 
  0.369598   0.001905   0.000000 
  0.379075   0.001905   0.000000 
  0.388552   0.001905   0.000000 
  0.398029   0.001905   0.000000 
  0.407506   0.001905   0.000000 
  0.416983   0.001905   0.000000 
  0.426459   0.001905   0.000000 
  0.435936   0.001905   0.000000 
  0.445413   0.001905   0.000000 
  0.454890   0.001905   0.000000 
  0.464367   0.001905   0.000000 
  0.473844   0.001905   0.000000 
  0.483321   0.001905   0.000000 
  0.492798   0.001905   0.000000 
  0.502274   0.001905   0.000000 
  0.511751   0.001905   0.000000 
  0.521228   0.001905   0.000000 
  0.530705   0.001905   0.000000 
  0.540182   0.001905   0.000000 
  0.549659   0.001905   0.000000 
  0.559136   0.001905   0.000000 
  0.568613   0.001905   0.000000 
  0.578089   0.001905   0.000000 
  0.587566   0.001905   0.000000 
  0.597043   0.001905   0.000000 
  0.606520   0.001905   0.000000 
  0.615997   0.001905   0.000000 
  0.625474   0.001905   0.000000 
  0.634951   0.001905   0.000000 
  0.644428   0.001905   0.000000 
  0.653904   0.001905   0.000000 
  0.663381   0.001905   0.000000 
  0.672858   0.001905   0.000000 
  0.682335   0.001905   0.000000 
  0.691812   0.001905   0.000000 
  0.701289   0.001905   0.000000 
  0.710766   0.001905   0.000000 
  0.720243   0.001905   0.000000 
  0.729719   0.001905   0.000000 
  0.739196   0.001905   0.000000 
  0.748673   0.001905   0.000000 
  0.758150   0.001905   0.000000 
  0.767627   0.001905   0.000000 
  0.777104   0.001905   0.000000 
  0.786581   0.001905   0.000000 
  0.796058   0.001905   0.000000 
  0.805534   0.001905   0.000000 
  0.815011   0.001905   0.000000 
  0.824488   0.001905   0.000000 
  0.833965   0.001905   0.000000 
  0.843442   0.001905   0.000000 
  0.852919   0.001905   0.000000 
  0.862396   0.001905   0.000000 
  0.871873   0.001905   0.000000 
  0.881350   0.001905   0.000000 
  0.890826   0.001905   0.000000 
  0.900303   0.001905   0.000000 
  0.909780   0.001905   0.000000 
  0.919257   0.001905   0.000000 
  0.928734   0.001905   0.000000 
  0.938211   0.001905   0.000000 
  0.947688   0.001905   0.000000 
  0.000000   0.003810   0.000000 
  0.009477   0.003810   0.000000 
  0.018954   0.003810   0.000000 
  0.028431   0.003810   0.000000 
  0.037908   0.003810   0.000000 
  0.047384   0.003810   0.000000 
  0.056861   0.003810   0.000000 
  0.066338   0.003810   0.000000 
  0.075815   0.003810   0.000000 
  0.085292   0.003810   0.000000 
  0.094769   0.003810   0.000000 
  0.104246   0.003810   0.000000 
  0.113723   0.003810   0.000000 
  0.123199   0.003810   0.000000 
  0.132676   0.003810   0.000000 
  0.142153   0.003810   0.000000 
  0.151630   0.003810   0.000000 
  0.161107   0.003810   0.000000 
  0.170584   0.003810   0.000000 
  0.180061   0.003810   0.000000 
  0.189538   0.003810   0.000000 
  0.199014   0.003810   0.000000 
  0.208491   0.003810   0.000000 
  0.217968   0.003810   0.000000 
  0.227445   0.003810   0.000000 
  0.236922   0.003810   0.000000 
  0.246399   0.003810   0.000000 
  0.255876   0.003810   0.000000 
  0.265353   0.003810   0.000000 
  0.274829   0.003810   0.000000 
  0.284306   0.003810   0.000000 
  0.293783   0.003810   0.000000 
  0.303260   0.003810   0.000000 
  0.312737   0.003810   0.000000 
  0.322214   0.003810   0.000000 
  0.331691   0.003810   0.000000 
  0.341168   0.003810   0.000000 
  0.350644   0.003810   0.000000 
  0.360121   0.003810   0.000000 
  0.369598   0.003810   0.000000 
  0.379075   0.003810   0.000000 
  0.388552   0.003810   0.000000 
  0.398029   0.003810   0.000000 
  0.407506   0.003810   0.000000 
  0.416983   0.003810   0.000000 
  0.426459   0.003810   0.000000 
  0.435936   0.003810   0.000000 
  0.445413   0.003810   0.000000 
  0.454890   0.003810   0.000000 
  0.464367   0.003810   0.000000 
  0.473844   0.003810   0.000000 
  0.483321   0.003810   0.000000 
  0.492798   0.003810   0.000000 
  0.502274   0.003810   0.000000 
  0.511751   0.003810   0.000000 
  0.521228   0.003810   0.000000 
  0.530705   0.003810   0.000000 
  0.540182   0.003810   0.000000 
  0.549659   0.003810   0.000000 
  0.559136   0.003810   0.000000 
  0.568613   0.003810   0.000000 
  0.578089   0.003810   0.000000 
  0.587566   0.003810   0.000000 
  0.597043   0.003810   0.000000 
  0.606520   0.003810   0.000000 
  0.615997   0.003810   0.000000 
  0.625474   0.003810   0.000000 
  0.634951   0.003810   0.000000 
  0.644428   0.003810   0.000000 
  0.653904   0.003810   0.000000 
  0.663381   0.003810   0.000000 
  0.672858   0.003810   0.000000 
  0.682335   0.003810   0.000000 
  0.691812   0.003810   0.000000 
  0.701289   0.003810   0.000000 
  0.710766   0.003810   0.000000 
  0.720243   0.003810   0.000000 
  0.729719   0.003810   0.000000 
  0.739196   0.003810   0.000000 
  0.748673   0.003810   0.000000 
  0.758150   0.003810   0.000000 
  0.767627   0.003810   0.000000 
  0.777104   0.003810   0.000000 
  0.786581   0.003810   0.000000 
  0.796058   0.003810   0.000000 
[...]
<PointData Scalars='scalars'>
<DataArray type='Float32' Name='AR' Format='ascii'> 
  0.600000 
  0.600106 
  0.600212 
  0.600317 
  0.600421 
  0.600524 
  0.600627 
  0.600729 
  0.600830 
  0.600930 
  0.601030 
  0.601129 
  0.601227 
  0.601324 
  0.601421 
  0.601517 
  0.601613 
  0.601707 
  0.601801 
  0.601895 
  0.601987 
  0.602079 
  0.602171 
  0.602261 
  0.602351 
  0.602441 
  0.602530 
  0.602618 
  0.602705 
  0.602792 
  0.602879 
  0.602964 
  0.603050 
  0.603134 
  0.603218 
  0.603301 
  0.603384 
  0.603466 
  0.603548 
  0.603629 
  0.603710 
  0.603790 
  0.603869 
  0.603948 
  0.604027 
  0.604105 
  0.604182 
  0.604259 
  0.604335 
  0.604411 
  0.604486 
  0.604561 
  0.604635 
  0.604709 
  0.604782 
  0.604855 
  0.604928 
  0.604999 
  0.605071 
  0.605142 
  0.605212 
  0.605282 
  0.605352 
  0.605421 
  0.605490 
  0.605558 
  0.605626 
  0.605693 
  0.605760 
  0.605827 
  0.605893 
  0.605958 
  0.606024 
  0.606088 
  0.606153 
  0.606217 
  0.606281 
  0.606344 
  0.606407 
  0.606469 
  0.606531 
  0.606593 
  0.606654 
  0.606715 
  0.606776 
  0.606836 
  0.606896 
  0.606955 
  0.607014 
  0.607073 
  0.607132 
  0.607190 
  0.607247 
  0.607305 
  0.607362 
  0.607418 
  0.607475 
  0.607531 
  0.607586 
  0.607642 
  0.607697 
  0.600000 
  0.600106 
  0.600212 
  0.600317 
  0.600421 
  0.600524 
  0.600627 
  0.600729 
  0.600830 
  0.600930 
  0.601030 
  0.601129 
  0.601227 
  0.601324 
  0.601421 
  0.601517 
  0.601613 
  0.601707 
  0.601801 
  0.601895 
  0.601987 
  0.602079 
  0.602171 
  0.602261 
  0.602351 
  0.602441 
  0.602530 
  0.602618 
  0.602705 
  0.602792 
  0.602879 
  0.602964 
  0.603050 
  0.603134 
  0.603218 
  0.603301 
  0.603384 
  0.603466 
  0.603548 
  0.603629 
  0.603710 
  0.603790 
  0.603869 
  0.603948 
  0.604027 
  0.604105 
  0.604182 
  0.604259 
  0.604335 
  0.604411 
  0.604486 
  0.604561 
  0.604635 
  0.604709 
  0.604782 
  0.604855 
  0.604928 
  0.604999 
  0.605071 
  0.605142 
  0.605212 
  0.605282 
  0.605352 
  0.605421 
  0.605490 
  0.605558 
  0.605626 
  0.605693 
  0.605760 
  0.605827 
  0.605893 
  0.605958 
  0.606024 
  0.606088 
  0.606153 
  0.606217 
  0.606281 
  0.606344 
  0.606407 
  0.606469 
  0.606531 
  0.606593 
  0.606654 
  0.606715 
  0.606776 
  0.606836 
  0.606896 
  0.606955 
  0.607014 
  0.607073 
  0.607132 
  0.607190 
  0.607247 
  0.607305 
  0.607362 
  0.607418 
  0.607475 
  0.607531 
  0.607586 
  0.607642 
  0.607697 
  0.600000 
  0.600106 
  0.600212 
  0.600317 
  0.600421 
  0.600524 
  0.600627 
  0.600729 
  0.600830 
  0.600930 
  0.601030 
  0.601129 
  0.601227 
  0.601324 
  0.601421 
  0.601517 
  0.601613 
  0.601707 
  0.601801 
  0.601895 
  0.601987 
  0.602079 
  0.602171 
  0.602261 
  0.602351 
  0.602441 
  0.602530 
  0.602618 
  0.602705 
  0.602792 
  0.602879 
  0.602964 
  0.603050 
  0.603134 
  0.603218 
  0.603301 
  0.603384 
  0.603466 
  0.603548 
  0.603629 
  0.603710 
  0.603790 
  0.603869 
  0.603948 
  0.604027 
  0.604105 
  0.604182 
  0.604259 
  0.604335 
  0.604411 
  0.604486 
  0.604561 
  0.604635 
  0.604709 
  0.604782 
  0.604855 
  0.604928 
  0.604999 
  0.605071 
  0.605142 
  0.605212 
  0.605282 
  0.605352 
  0.605421 
  0.605490 
  0.605558 
  0.605626 
  0.605693 
  0.605760 
  0.605827 
  0.605893 
  0.605958 
  0.606024 
  0.606088 
  0.606153 
  0.606217 
  0.606281 
  0.606344 
  0.606407 
  0.606469 
  0.606531 
  0.606593 
  0.606654 
  0.606715 
  0.606776 
  0.606836 
  0.606896 
  0.606955 
  0.607014 
  0.607073 
  0.607132 
  0.607190 
  0.607247 
  0.607305 
  0.607362 
  0.607418 
  0.607475 
  0.607531 
  0.607586 
  0.607642 
  0.607697 
  0.600000 
  0.600106 
  0.600212 
  0.600317 
  0.600421 
  0.600524 
  0.600627 
  0.600729 
  0.600830 
  0.600930 
  0.601030 
  0.601129 
  0.601227 
  0.601324 
  0.601421 
  0.601517 
  0.601613 
  0.601707 
  0.601801 
  0.601895 
  0.601987 
  0.602079 
  0.602171 
  0.602261 
  0.602351 
  0.602441 
  0.602530 
  0.602618 
  0.602705 
  0.602792 
  0.602879 
  0.602964 
  0.603050 
  0.603134 
  0.603218 
  0.603301 
  0.603384 
  0.603466 
  0.603548 
  0.603629 
  0.603710 
  0.603790 
  0.603869 
  0.603948 
  0.604027 
  0.604105 
  0.604182 
  0.604259 
  0.604335 
  0.604411 
  0.604486 
  0.604561 
  0.604635 
  0.604709 
  0.604782 
  0.604855 
  0.604928 
  0.604999 
  0.605071 
  0.605142 
  0.605212 
  0.605282 
  0.605352 
  0.605421 
  0.605490 
  0.605558 
  0.605626 
  0.605693 
  0.605760 
  0.605827 
  0.605893 
  0.605958 
  0.606024 
  0.606088 
  0.606153 
  0.606217 
  0.606281 
  0.606344 
  0.606407 
  0.606469 
  0.606531 
  0.606593 
  0.606654 
  0.606715 
  0.606776 
  0.606836 
  0.606896 
  0.606955 
  0.607014 
  0.607073 
  0.607132 
  0.607190 
  0.607247 
  0.607305 
  0.607362 
  0.607418 
  0.607475 
  0.607531 
  0.607586 
  0.607642 
  0.607697 
  0.600000 
  0.600106 
  0.600212 
  0.600317 
  0.600421 
  0.600524 
  0.600627 
  0.600729 
  0.600830 
  0.600930 
  0.601030 
  0.601129 
  0.601227 
  0.601324 
  0.601421 
  0.601517 
  0.601613 
  0.601707 
  0.601801 
  0.601895 
  0.601987 
  0.602079 
  0.602171 
  0.602261 
  0.602351 
  0.602441 
  0.602530 
  0.602618 
  0.602705 
  0.602792 
  0.602879 
  0.602964 
  0.603050 
  0.603134 
  0.603218 
  0.603301 
  0.603384 
  0.603466 
  0.603548 
  0.603629 
  0.603710 
  0.603790 
  0.603869 
  0.603948 
  0.604027 
  0.604105 
  0.604182 
  0.604259 
  0.604335 
  0.604411 
  0.604486 
  0.604561 
  0.604635 
  0.604709 
  0.604782 
  0.604855 
  0.604928 
  0.604999 
  0.605071 
  0.605142 
  0.605212 
  0.605282 
  0.605352 
  0.605421 
  0.605490 
  0.605558 
  0.605626 
  0.605693 
  0.605760 
  0.605827 
  0.605893 
  0.605958 
  0.606024 
  0.606088 
  0.606153 
  0.606217 
  0.606281 
  0.606344 
  0.606407 
  0.606469 
  0.606531 
  0.606593 
  0.606654 
  0.606715 
  0.606776 
  0.606836 
  0.606896 
  0.606955 
  0.607014 
  0.607073 
  0.607132 
  0.607190 
  0.607247 
  0.607305 
  0.607362 
  0.607418 
  0.607475 
  0.607531 
  0.607586 
  0.607642 
  0.607697 
  0.600000 
  0.600106 
  0.600212 
  0.600317 
  0.600421 
  0.600524 
  0.600627 
  0.600729 
  0.600830 
  0.600930 
  0.601030 
  0.601129 
  0.601227 
  0.601324 
  0.601421 
  0.601517 
  0.601613 
  0.601707 
  0.601801 
  0.601895 
  0.601987 
  0.602079 
  0.602171 
  0.602261 
  0.602351 
  0.602441 
  0.602530 
  0.602618 
  0.602705 
  0.602792 
  0.602879 
  0.602964 
  0.603050 
  0.603134 
  0.603218 
  0.603301 
  0.603384 
  0.603466 
  0.603548 
  0.603629 
  0.603710 
  0.603790 
  0.603869 
  0.603948 
  0.604027 
  0.604105 
  0.604182 
  0.604259 
  0.604335 
  0.604411 
  0.604486 
  0.604561 
  0.604635 
  0.604709 
  0.604782 
  0.604855 
  0.604928 
  0.604999 
  0.605071 
  0.605142 
  0.605212 
  0.605282 
  0.605352 
  0.605421 
  0.605490 
  0.605558 
  0.605626 
  0.605693 
  0.605760 
  0.605827 
  0.605893 
  0.605958 
  0.606024 
  0.606088 
  0.606153 
  0.606217 
  0.606281 
  0.606344 
  0.606407 
  0.606469 
  0.606531 
  0.606593 
  0.606654 
  0.606715 
  0.606776 
  0.606836 
  0.606896 
  0.606955 
  0.607014 
  0.607073 
  0.607132 
  0.607190 
  0.607247 
  0.607305 
  0.607362 
  0.607418 
  0.607475 
  0.607531 
  0.607586 
  0.607642 
  0.607697 
  0.600000 
  0.600106 
  0.600212 
  0.600317 
  0.600421 
  0.600524 
  0.600627 
  0.600729 
  0.600830 
  0.600930 
  0.601030 
  0.601129 
  0.601227 
  0.601324 
  0.601421 
  0.601517 
  0.601613 
  0.601707 
  0.601801 
  0.601895 
  0.601987 
  0.602079 
  0.602171 
  0.602261 
  0.602351 
  0.602441 
  0.602530 
  0.602618 
  0.602705 
  0.602792 
  0.602879 
  0.602964 
  0.603050 
  0.603134 
  0.603218 
  0.603301 
  0.603384 
  0.603466 
  0.603548 
  0.603629 
  0.603710 
  0.603790 
  0.603869 
  0.603948 
  0.604027 
  0.604105 
  0.604182 
  0.604259 
  0.604335 
  0.604411 
  0.604486 
  0.604561 
  0.604635 
  0.604709 
  0.604782 
  0.604855 
  0.604928 
  0.604999 
  0.605071 
  0.605142 
  0.605212 
  0.605282 
  0.605352 
  0.605421 
  0.605490 
  0.605558 
  0.605626 
  0.605693 
  0.605760 
  0.605827 
  0.605893 
  0.605958 
  0.606024 
  0.606088 
  0.606153 
  0.606217 
  0.606281 
  0.606344 
  0.606407 
  0.606469 
  0.606531 
  0.606593 
  0.606654 
  0.606715 
  0.606776 
  0.606836 
  0.606896 
  0.606955 
  0.607014 
  0.607073 
  0.607132 
  0.607190 
  0.607247 
  0.607305 
  0.607362 
  0.607418 
  0.607475 
  0.607531 
  0.607586 
  0.607642 
  0.607697 
  0.600000 
  0.600106 
  0.600212 
  0.600317 
  0.600421 
  0.600524 
  0.600627 
  0.600729 
  0.600830 
  0.600930 
  0.601030 
  0.601129 
  0.601227 
  0.601324 
  0.601421 
  0.601517 
  0.601613 
  0.601707 
  0.601801 
  0.601895 
  0.601987 
  0.602079 
  0.602171 
  0.602261 
  0.602351 
  0.602441 
  0.602530 
  0.602618 
  0.602705 
  0.602792 
  0.602879 
  0.602964 
  0.603050 
  0.603134 
  0.603218 
  0.603301 
  0.603384 
  0.603466 
  0.603548 
  0.603629 
  0.603710 
  0.603790 
  0.603869 
  0.603948 
  0.604027 
  0.604105 
  0.604182 
  0.604259 
  0.604335 
  0.604411 
  0.604486 
  0.604561 
  0.604635 
  0.604709 
  0.604782 
  0.604855 
  0.604928 
  0.604999 
  0.605071 
  0.605142 
  0.605212 
  0.605282 
  0.605352 
  0.605421 
  0.605490 
  0.605558 
  0.605626 
  0.605693 
  0.605760 
  0.605827 
  0.605893 
  0.605958 
  0.606024 
  0.606088 
  0.606153 
  0.606217 
  0.606281 
  0.606344 
  0.606407 
  0.606469 
  0.606531 
  0.606593 
  0.606654 
  0.606715 
  0.606776 
  0.606836 
  0.606896 
  0.606955 
  0.607014 
  0.607073 
  0.607132 
  0.607190 
  0.607247 
  0.607305 
  0.607362 
  0.607418 
  0.607475 
  0.607531 
  0.607586 
  0.607642 
  0.607697 
  0.600000 
  0.600106 
  0.600212 
  0.600317 
  0.600421 
  0.600524 
  0.600627 
  0.600729 
  0.600830 
  0.600930 
  0.601030 
  0.601129 
  0.601227 
  0.601324 
  0.601421 
  0.601517 
  0.601613 
  0.601707 
  0.601801 
  0.601895 
  0.601987 
  0.602079 
  0.602171 
  0.602261 
  0.602351 
  0.602441 
  0.602530 
  0.602618 
  0.602705 
  0.602792 
  0.602879 
  0.602964 
  0.603050 
  0.603134 
  0.603218 
  0.603301 
  0.603384 
  0.603466 
  0.603548 
  0.603629 
  0.603710 
  0.603790 
  0.603869 
  0.603948 
  0.604027 
  0.604105 
  0.604182 
  0.604259 
  0.604335 
  0.604411 
  0.604486 
  0.604561 
  0.604635 
  0.604709 
  0.604782 
  0.604855 
  0.604928 
  0.604999 
  0.605071 
  0.605142 
  0.605212 
  0.605282 
  0.605352 
  0.605421 
  0.605490 
  0.605558 
  0.605626 
  0.605693 
  0.605760 
  0.605827 
  0.605893 
  0.605958 
  0.606024 
  0.606088 
  0.606153 
  0.606217 
  0.606281 
  0.606344 
  0.606407 
  0.606469 
  0.606531 
  0.606593 
  0.606654 
  0.606715 
  0.606776 
  0.606836 
  0.606896 
  0.606955 
  0.607014 
  0.607073 
  0.607132 
  0.607190 
  0.607247 
  0.607305 
  0.607362 
  0.607418 
  0.607475 
  0.607531 
  0.607586 
  0.607642 
  0.607697 
  0.600000 
  0.600106 
  0.600212 
  0.600317 
  0.600421 
  0.600524 
  0.600627 
  0.600729 
  0.600830 
  0.600930 
  0.601030 
  0.601129 
  0.601227 
  0.601324 
  0.601421 
  0.601517 
  0.601613 
  0.601707 
  0.601801 
  0.601895 
  0.601987 
  0.602079 
  0.602171 
  0.602261 
  0.602351 
  0.602441 
  0.602530 
  0.602618 
  0.602705 
  0.602792 
  0.602879 
  0.602964 
  0.603050 
  0.603134 
  0.603218 
  0.603301 
  0.603384 
  0.603466 
  0.603548 
  0.603629 
  0.603710 
  0.603790 
  0.603869 
  0.603948 
  0.604027 
  0.604105 
  0.604182 
  0.604259 
  0.604335 
  0.604411 
  0.604486 
  0.604561 
  0.604635 
  0.604709 
  0.604782 
  0.604855 
  0.604928 
  0.604999 
  0.605071 
  0.605142 
  0.605212 
  0.605282 
  0.605352 
  0.605421 
  0.605490 
  0.605558 
  0.605626 
  0.605693 
  0.605760 
  0.605827 
  0.605893 
  0.605958 
  0.606024 
  0.606088 
  0.606153 
  0.606217 
  0.606281 
  0.606344 
  0.606407 
  0.606469 
  0.606531 
  0.606593 
  0.606654 
  0.606715 
  0.606776 
  0.606836 
  0.606896 
  0.606955 
  0.607014 
  0.607073 
  0.607132 
  0.607190 
  0.607247 
  0.607305 
  0.607362 
  0.607418 
  0.607475 
  0.607531 
  0.607586 
  0.607642 
  0.607697 
  0.600000 
  0.600106 
  0.600212 
  0.600317 
  0.600421 
  0.600524 
  0.600627 
  0.600729 
  0.600830 
  0.600930 
  0.601030 
  0.601129 
  0.601227 
  0.601324 
  0.601421 
  0.601517 
  0.601613 
  0.601707 
  0.601801 
  0.601895 
  0.601987 
  0.602079 
  0.602171 
  0.602261 
  0.602351 
  0.602441 
  0.602530 
  0.602618 
  0.602705 
  0.602792 
  0.602879 
  0.602964 
  0.603050 
  0.603134 
  0.603218 
  0.603301 
  0.603384 
  0.603466 
  0.603548 
  0.603629 
  0.603710 
  0.603790 
  0.603869 
  0.603948 
  0.604027 
  0.604105 
  0.604182 
  0.604259 
  0.604335 
  0.604411 
  0.604486 
  0.604561 
  0.604635 
  0.604709 
  0.604782 
  0.604855 
  0.604928 
  0.604999 
  0.605071 
  0.605142 
  0.605212 
  0.605282 
  0.605352 
  0.605421 
  0.605490 
  0.605558 
  0.605626 
  0.605693 
  0.605760 
  0.605827 
  0.605893 
  0.605958 
  0.606024 
  0.606088 
  0.606153 
  0.606217 
  0.606281 
  0.606344 
  0.606407 
  0.606469 
  0.606531 
  0.606593 
  0.606654 
  0.606715 
  0.606776 
  0.606836 
  0.606896 
  0.606955 
  0.607014 
  0.607073 
  0.607132 
  0.607190 
  0.607247 
  0.607305 
  0.607362 
  0.607418 
  0.607475 
  0.607531 
  0.607586 
  0.607642 
  0.607697 
  0.600000 
  0.600106 
  0.600212 
  0.600317 
  0.600421 
  0.600524 
  0.600627 
  0.600729 
  0.600830 
  0.600930 
  0.601030 
  0.601129 
  0.601227 
  0.601324 
  0.601421 
  0.601517 
  0.601613 
  0.601707 
  0.601801 
  0.601895 
  0.601987 
  0.602079 
  0.602171 
  0.602261 
  0.602351 
  0.602441 
  0.602530 
  0.602618 
  0.602705 
  0.602792 
  0.602879 
  0.602964 
  0.603050 
  0.603134 
  0.603218 
  0.603301 
  0.603384 
  0.603466 
  0.603548 
  0.603629 
  0.603710 
  0.603790 
  0.603869 
  0.603948 
  0.604027 
  0.604105 
  0.604182 
  0.604259 
  0.604335 
  0.604411 
  0.604486 
  0.604561 
  0.604635 
  0.604709 
  0.604782 
  0.604855 
  0.604928 
  0.604999 
  0.605071 
  0.605142 
  0.605212 
  0.605282 
  0.605352 
  0.605421 
  0.605490 
  0.605558 
  0.605626 
  0.605693 
  0.605760 
  0.605827 
  0.605893 
  0.605958 
  0.606024 
  0.606088 
  0.606153 
  0.606217 
  0.606281 
  0.606344 
  0.606407 
  0.606469 
  0.606531 
  0.606593 
  0.606654 
  0.606715 
  0.606776 
  0.606836 
  0.606896 
  0.606955 
  0.607014 
  0.607073 
  0.607132 
  0.607190 
  0.607247 
  0.607305 
  0.607362 
  0.607418 
  0.607475 
  0.607531 
  0.607586 
  0.607642 
  0.607697 
  0.600000 
  0.600106 
  0.600212 
  0.600317 
  0.600421 
  0.600524 
  0.600627 
  0.600729 
  0.600830 
  0.600930 
  0.601030 
  0.601129 
  0.601227 
  0.601324 
  0.601421 
  0.601517 
  0.601613 
  0.601707 
  0.601801 
  0.601895 
  0.601987 
  0.602079 
  0.602171 
  0.602261 
  0.602351 
  0.602441 
  0.602530 
  0.602618 
  0.602705 
  0.602792 
  0.602879 
  0.602964 
  0.603050 
  0.603134 
  0.603218 
  0.603301 
  0.603384 
  0.603466 
  0.603548 
  0.603629 
  0.603710 
  0.603790 
  0.603869 
  0.603948 
  0.604027 
  0.604105 
  0.604182 
  0.604259 
  0.604335 
  0.604411 
  0.604486 
  0.604561 
  0.604635 
  0.604709 
  0.604782 
  0.604855 
  0.604928 
  0.604999 
  0.605071 
  0.605142 
  0.605212 
  0.605282 
  0.605352 
  0.605421 
  0.605490 
  0.605558 
  0.605626 
  0.605693 
  0.605760 
  0.605827 
  0.605893 
  0.605958 
  0.606024 
  0.606088 
  0.606153 
  0.606217 
  0.606281 
  0.606344 
  0.606407 
  0.606469 
  0.606531 
  0.606593 
  0.606654 
  0.606715 
  0.606776 
  0.606836 
  0.606896 
  0.606955 
  0.607014 
  0.607073 
  0.607132 
  0.607190 
  0.607247 
  0.607305 
  0.607362 
  0.607418 
  0.607475 
  0.607531 
  0.607586 
  0.607642 
  0.607697 
  0.600000 
  0.600106 
  0.600212 
  0.600317 
  0.600421 
  0.600524 
  0.600627 
  0.600729 
  0.600830 
  0.600930 
  0.601030 
  0.601129 
  0.601227 
  0.601324 
  0.601421 
  0.601517 
  0.601613 
  0.601707 
  0.601801 
  0.601895 
  0.601987 
  0.602079 
  0.602171 
  0.602261 
  0.602351 
  0.602441 
  0.602530 
  0.602618 
  0.602705 
  0.602792 
  0.602879 
  0.602964 
  0.603050 
  0.603134 
  0.603218 
  0.603301 
  0.603384 
  0.603466 
  0.603548 
  0.603629 
  0.603710 
  0.603790 
  0.603869 
  0.603948 
  0.604027 
  0.604105 
  0.604182 
  0.604259 
  0.604335 
  0.604411 
  0.604486 
  0.604561 
  0.604635 
  0.604709 
  0.604782 
  0.604855 
  0.604928 
  0.604999 
  0.605071 
  0.605142 
  0.605212 
  0.605282 
  0.605352 
  0.605421 
  0.605490 
  0.605558 
  0.605626 
  0.605693 
  0.605760 
  0.605827 
  0.605893 
  0.605958 
  0.606024 
  0.606088 
  0.606153 
  0.606217 
  0.606281 
  0.606344 
  0.606407 
  0.606469 
  0.606531 
  0.606593 
  0.606654 
  0.606715 
  0.606776 
  0.606836 
  0.606896 
  0.606955 
  0.607014 
  0.607073 
  0.607132 
  0.607190 
  0.607247 
  0.607305 
  0.607362 
  0.607418 
  0.607475 
  0.607531 
  0.607586 
  0.607642 
  0.607697 
  0.600000 
  0.600106 
  0.600212 
  0.600317 
  0.600421 
  0.600524 
  0.600627 
  0.600729 
  0.600830 
  0.600930 
  0.601030 
  0.601129 
  0.601227 
  0.601324 
  0.601421 
  0.601517 
  0.601613 
  0.601707 
  0.601801 
  0.601895 
  0.601987 
  0.602079 
  0.602171 
  0.602261 
  0.602351 
  0.602441 
  0.602530 
  0.602618 
  0.602705 
  0.602792 
  0.602879 
  0.602964 
  0.603050 
  0.603134 
  0.603218 
  0.603301 
  0.603384 
  0.603466 
  0.603548 
  0.603629 
  0.603710 
  0.603790 
  0.603869 
  0.603948 
  0.604027 
  0.604105 
  0.604182 
  0.604259 
  0.604335 
  0.604411 
  0.604486 
  0.604561 
  0.604635 
  0.604709 
  0.604782 
  0.604855 
  0.604928 
  0.604999 
  0.605071 
  0.605142 
  0.605212 
  0.605282 
  0.605352 
  0.605421 
  0.605490 
  0.605558 
  0.605626 
  0.605693 
  0.605760 
  0.605827 
  0.605893 
  0.605958 
  0.606024 
  0.606088 
  0.606153 
  0.606217 
  0.606281 
  0.606344 
  0.606407 
  0.606469 
  0.606531 
  0.606593 
  0.606654 
  0.606715 
  0.606776 
  0.606836 
  0.606896 
  0.606955 
  0.607014 
  0.607073 
  0.607132 
  0.607190 
  0.607247 
  0.607305 
  0.607362 
  0.607418 
  0.607475 
  0.607531 
  0.607586 
  0.607642 
  0.607697 
  0.600000 
  0.600106 
  0.600212 
  0.600317 
  0.600421 
  0.600524 
  0.600627 
  0.600729 
  0.600830 
  0.600930 
  0.601030 
  0.601129 
  0.601227 
  0.601324 
  0.601421 
  0.601517 
  0.601613 
  0.601707 
  0.601801 
  0.601895 
  0.601987 
  0.602079 
  0.602171 
  0.602261 
  0.602351 
  0.602441 
  0.602530 
  0.602618 
  0.602705 
  0.602792 
  0.602879 
  0.602964 
  0.603050 
  0.603134 
  0.603218 
  0.603301 
  0.603384 
  0.603466 
  0.603548 
  0.603629 
  0.603710 
  0.603790 
  0.603869 
  0.603948 
  0.604027 
  0.604105 
  0.604182 
  0.604259 
  0.604335 
  0.604411 
  0.604486 
  0.604561 
  0.604635 
  0.604709 
  0.604782 
  0.604855 
  0.604928 
  0.604999 
  0.605071 
  0.605142 
  0.605212 
  0.605282 
  0.605352 
  0.605421 
  0.605490 
  0.605558 
  0.605626 
  0.605693 
  0.605760 
  0.605827 
  0.605893 
  0.605958 
  0.606024 
  0.606088 
  0.606153 
  0.606217 
  0.606281 
  0.606344 
  0.606407 
  0.606469 
  0.606531 
  0.606593 
  0.606654 
  0.606715 
  0.606776 
  0.606836 
  0.606896 
  0.606955 
  0.607014 
  0.607073 
  0.607132 
  0.607190 
  0.607247 
  0.607305 
  0.607362 
  0.607418 
  0.607475 
  0.607531 
  0.607586 
  0.607642 
  0.607697 
  0.600000 
  0.600106 
  0.600212 
  0.600317 
  0.600421 
  0.600524 
  0.600627 
  0.600729 
  0.600830 
  0.600930 
  0.601030 
  0.601129 
  0.601227 
  0.601324 
  0.601421 
  0.601517 
  0.601613 
  0.601707 
  0.601801 
  0.601895 
  0.601987 
  0.602079 
  0.602171 
  0.602261 
  0.602351 
  0.602441 
  0.602530 
  0.602618 
  0.602705 
  0.602792 
  0.602879 
  0.602964 
  0.603050 
  0.603134 
  0.603218 
  0.603301 
  0.603384 
  0.603466 
  0.603548 
  0.603629 
  0.603710 
  0.603790 
  0.603869 