<VTKFile type='UnstructuredGrid' version='0.1' byte_order='BigEndian'> 
<UnstructuredGrid> 
<Piece NumberOfPoints='  1400 ' NumberOfCells='  1194 '>
<Points> 
<DataArray type='Float32' NumberOfComponents='3' Format='ascii'> 
  0.000000   0.000000   0.000000 
  0.157948   0.000000   0.000000 
  0.315896   0.000000   0.000000 
  0.473844   0.000000   0.000000 
  0.631792   0.000000   0.000000 
  0.789740   0.000000   0.000000 
  0.947688   0.000000   0.000000 
  0.000000   0.001905   0.000000 
  0.157948   0.001905   0.000000 
  0.315896   0.001905   0.000000 
  0.473844   0.001905   0.000000 
  0.631792   0.001905   0.000000 
  0.789740   0.001905   0.000000 
  0.947688   0.001905   0.000000 
  0.000000   0.003810   0.000000 
  0.157948   0.003810   0.000000 
  0.315896   0.003810   0.000000 
  0.473844   0.003810   0.000000 
  0.631792   0.003810   0.000000 
  0.789740   0.003810   0.000000 
  0.947688   0.003810   0.000000 
  0.000000   0.005715   0.000000 
  0.157948   0.005715   0.000000 
  0.315896   0.005715   0.000000 
  0.473844   0.005715   0.000000 
  0.631792   0.005715   0.000000 
  0.789740   0.005715   0.000000 
  0.947688   0.005715   0.000000 
  0.000000   0.007620   0.000000 
  0.157948   0.007620   0.000000 
  0.315896   0.007620   0.000000 
  0.473844   0.007620   0.000000 
  0.631792   0.007620   0.000000 
  0.789740   0.007620   0.000000 
  0.947688   0.007620   0.000000 
  0.000000   0.009524   0.000000 
  0.157948   0.009524   0.000000 
  0.315896   0.009524   0.000000 
  0.473844   0.009524   0.000000 
  0.631792   0.009524   0.000000 
  0.789740   0.009524   0.000000 
  0.947688   0.009524   0.000000 
  0.000000   0.011429   0.000000 
  0.157948   0.011429   0.000000 
  0.315896   0.011429   0.000000 
  0.473844   0.011429   0.000000 
  0.631792   0.011429   0.000000 
  0.789740   0.011429   0.000000 
  0.947688   0.011429   0.000000 
  0.000000   0.013334   0.000000 
  0.157948   0.013334   0.000000 
  0.315896   0.013334   0.000000 
  0.473844   0.013334   0.000000 
  0.631792   0.013334   0.000000 
  0.789740   0.013334   0.000000 
  0.947688   0.013334   0.000000 
  0.000000   0.015239   0.000000 
  0.157948   0.015239   0.000000 
  0.315896   0.015239   0.000000 
  0.473844   0.015239   0.000000 
  0.631792   0.015239   0.000000 
  0.789740   0.015239   0.000000 
  0.947688   0.015239   0.000000 
  0.000000   0.017144   0.000000 
  0.157948   0.017144   0.000000 
  0.315896   0.017144   0.000000 
  0.473844   0.017144   0.000000 
  0.631792   0.017144   0.000000 
  0.789740   0.017144   0.000000 
  0.947688   0.017144   0.000000 
  0.000000   0.019049   0.000000 
  0.157948   0.019049   0.000000 
  0.315896   0.019049   0.000000 
  0.473844   0.019049   0.000000 
  0.631792   0.019049   0.000000 
  0.789740   0.019049   0.000000 
  0.947688   0.019049   0.000000 
  0.000000   0.020954   0.000000 
  0.157948   0.020954   0.000000 
  0.315896   0.020954   0.000000 
  0.473844   0.020954   0.000000 
  0.631792   0.020954   0.000000 
  0.789740   0.020954   0.000000 
  0.947688   0.020954   0.000000 
  0.000000   0.022859   0.000000 
  0.157948   0.022859   0.000000 
  0.315896   0.022859   0.000000 
  0.473844   0.022859   0.000000 
  0.631792   0.022859   0.000000 
  0.789740   0.022859   0.000000 
  0.947688   0.022859   0.000000 
  0.000000   0.024764   0.000000 
  0.157948   0.024764   0.000000 
  0.315896   0.024764   0.000000 
  0.473844   0.024764   0.000000 
  0.631792   0.024764   0.000000 
  0.789740   0.024764   0.000000 
  0.947688   0.024764   0.000000 
  0.000000   0.026669   0.000000 
  0.157948   0.026669   0.000000 
  0.315896   0.026669   0.000000 
  0.473844   0.026669   0.000000 
  0.631792   0.026669   0.000000 
  0.789740   0.026669   0.000000 
  0.947688   0.026669   0.000000 
  0.000000   0.028573   0.000000 
  0.157948   0.028573   0.000000 
  0.315896   0.028573   0.000000 
  0.473844   0.028573   0.000000 
  0.631792   0.028573   0.000000 
  0.789740   0.028573   0.000000 
  0.947688   0.028573   0.000000 
  0.000000   0.030478   0.000000 
  0.157948   0.030478   0.000000 
  0.315896   0.030478   0.000000 
  0.473844   0.030478   0.000000 
  0.631792   0.030478   0.000000 
  0.789740   0.030478   0.000000 
  0.947688   0.030478   0.000000 
  0.000000   0.032383   0.000000 
  0.157948   0.032383   0.000000 
  0.315896   0.032383   0.000000 
  0.473844   0.032383   0.000000 
  0.631792   0.032383   0.000000 
  0.789740   0.032383   0.000000 
  0.947688   0.032383   0.000000 
  0.000000   0.034288   0.000000 
  0.157948   0.034288   0.000000 
  0.315896   0.034288   0.000000 
  0.473844   0.034288   0.000000 
  0.631792   0.034288   0.000000 
  0.789740   0.034288   0.000000 
  0.947688   0.034288   0.000000 
  0.000000   0.036193   0.000000 
  0.157948   0.036193   0.000000 
  0.315896   0.036193   0.000000 
  0.473844   0.036193   0.000000 
  0.631792   0.036193   0.000000 
  0.789740   0.036193   0.000000 
  0.947688   0.036193   0.000000 
  0.000000   0.038098   0.000000 
  0.157948   0.038098   0.000000 
  0.315896   0.038098   0.000000 
  0.473844   0.038098   0.000000 
  0.631792   0.038098   0.000000 
  0.789740   0.038098   0.000000 
  0.947688   0.038098   0.000000 
  0.000000   0.040003   0.000000 
  0.157948   0.040003   0.000000 
  0.315896   0.040003   0.000000 
  0.473844   0.040003   0.000000 
  0.631792   0.040003   0.000000 
  0.789740   0.040003   0.000000 
  0.947688   0.040003   0.000000 
  0.000000   0.041908   0.000000 
  0.157948   0.041908   0.000000 
  0.315896   0.041908   0.000000 
  0.473844   0.041908   0.000000 
  0.631792   0.041908   0.000000 
  0.789740   0.041908   0.000000 
  0.947688   0.041908   0.000000 
  0.000000   0.043813   0.000000 
  0.157948   0.043813   0.000000 
  0.315896   0.043813   0.000000 
  0.473844   0.043813   0.000000 
  0.631792   0.043813   0.000000 
  0.789740   0.043813   0.000000 
  0.947688   0.043813   0.000000 
  0.000000   0.045718   0.000000 
  0.157948   0.045718   0.000000 
  0.315896   0.045718   0.000000 
  0.473844   0.045718   0.000000 
  0.631792   0.045718   0.000000 
  0.789740   0.045718   0.000000 
  0.947688   0.045718   0.000000 
  0.000000   0.047622   0.000000 
  0.157948   0.047622   0.000000 
  0.315896   0.047622   0.000000 
  0.473844   0.047622   0.000000 
  0.631792   0.047622   0.000000 
  0.789740   0.047622   0.000000 
  0.947688   0.047622   0.000000 
  0.000000   0.049527   0.000000 
  0.157948   0.049527   0.000000 
  0.315896   0.049527   0.000000 
  0.473844   0.049527   0.000000 
  0.631792   0.049527   0.000000 
  0.789740   0.049527   0.000000 
  0.947688   0.049527   0.000000 
  0.000000   0.051432   0.000000 
  0.157948   0.051432   0.000000 
  0.315896   0.051432   0.000000 
  0.473844   0.051432   0.000000 
  0.631792   0.051432   0.000000 
  0.789740   0.051432   0.000000 
  0.947688   0.051432   0.000000 
  0.000000   0.053337   0.000000 
  0.157948   0.053337   0.000000 
  0.315896   0.053337   0.000000 
  0.473844   0.053337   0.000000 
  0.631792   0.053337   0.000000 
  0.789740   0.053337   0.000000 
  0.947688   0.053337   0.000000 
  0.000000   0.055242   0.000000 
  0.157948   0.055242   0.000000 
  0.315896   0.055242   0.000000 
  0.473844   0.055242   0.000000 
  0.631792   0.055242   0.000000 
  0.789740   0.055242   0.000000 
  0.947688   0.055242   0.000000 
  0.000000   0.057147   0.000000 
  0.157948   0.057147   0.000000 
  0.315896   0.057147   0.000000 
  0.473844   0.057147   0.000000 
  0.631792   0.057147   0.000000 
  0.789740   0.057147   0.000000 
  0.947688   0.057147   0.000000 
  0.000000   0.059052   0.000000 
  0.157948   0.059052   0.000000 
  0.315896   0.059052   0.000000 
  0.473844   0.059052   0.000000 
  0.631792   0.059052   0.000000 
  0.789740   0.059052   0.000000 
  0.947688   0.059052   0.000000 
  0.000000   0.060957   0.000000 
  0.157948   0.060957   0.000000 
  0.315896   0.060957   0.000000 
  0.473844   0.060957   0.000000 
  0.631792   0.060957   0.000000 
  0.789740   0.060957   0.000000 
  0.947688   0.060957   0.000000 
  0.000000   0.062862   0.000000 
  0.157948   0.062862   0.000000 
  0.315896   0.062862   0.000000 
  0.473844   0.062862   0.000000 
  0.631792   0.062862   0.000000 
  0.789740   0.062862   0.000000 
  0.947688   0.062862   0.000000 
  0.000000   0.064767   0.000000 
  0.157948   0.064767   0.000000 
  0.315896   0.064767   0.000000 
  0.473844   0.064767   0.000000 
  0.631792   0.064767   0.000000 
  0.789740   0.064767   0.000000 
  0.947688   0.064767   0.000000 
  0.000000   0.066671   0.000000 
  0.157948   0.066671   0.000000 
  0.315896   0.066671   0.000000 
  0.473844   0.066671   0.000000 
  0.631792   0.066671   0.000000 
  0.789740   0.066671   0.000000 
  0.947688   0.066671   0.000000 
  0.000000   0.068576   0.000000 
  0.157948   0.068576   0.000000 
  0.315896   0.068576   0.000000 
  0.473844   0.068576   0.000000 
  0.631792   0.068576   0.000000 
  0.789740   0.068576   0.000000 
  0.947688   0.068576   0.000000 
  0.000000   0.070481   0.000000 
  0.157948   0.070481   0.000000 
  0.315896   0.070481   0.000000 
  0.473844   0.070481   0.000000 
  0.631792   0.070481   0.000000 
  0.789740   0.070481   0.000000 
  0.947688   0.070481   0.000000 
  0.000000   0.072386   0.000000 
  0.157948   0.072386   0.000000 
  0.315896   0.072386   0.000000 
  0.473844   0.072386   0.000000 
  0.631792   0.072386   0.000000 
  0.789740   0.072386   0.000000 
  0.947688   0.072386   0.000000 
  0.000000   0.074291   0.000000 
  0.157948   0.074291   0.000000 
  0.315896   0.074291   0.000000 
  0.473844   0.074291   0.000000 
  0.631792   0.074291   0.000000 
  0.789740   0.074291   0.000000 
  0.947688   0.074291   0.000000 
  0.000000   0.076196   0.000000 
  0.157948   0.076196   0.000000 
  0.315896   0.076196   0.000000 
  0.473844   0.076196   0.000000 
  0.631792   0.076196   0.000000 
  0.789740   0.076196   0.000000 
  0.947688   0.076196   0.000000 
[...]
<PointData Scalars='scalars'>
<DataArray type='Float32' Name='AR' Format='ascii'> 
  0.600000 
  0.600106 
  0.600386 
  0.600603 
  0.600817 
  0.600979 
  0.601026 
  0.600000 
  0.600106 
  0.600386 
  0.600603 
  0.600817 
  0.600979 
  0.601026 
  0.600000 
  0.600106 
  0.600386 
  0.600603 
  0.600817 
  0.600979 
  0.601026 
  0.600000 
  0.600106 
  0.600386 
  0.600603 
  0.600817 
  0.600979 
  0.601026 
  0.600000 
  0.600106 
  0.600386 
  0.600603 
  0.600817 
  0.600979 
  0.601026 
  0.600000 
  0.600106 
  0.600386 
  0.600603 
  0.600817 
  0.600979 
  0.601026 
  0.600000 
  0.600106 
  0.600386 
  0.600603 
  0.600817 
  0.600979 
  0.601026 
  0.600000 
  0.600106 
  0.600386 
  0.600603 
  0.600817 
  0.600979 
  0.601026 
  0.600000 
  0.600106 
  0.600386 
  0.600603 
  0.600817 
  0.600979 
  0.601026 
  0.600000 
  0.600106 
  0.600386 
  0.600603 
  0.600817 
  0.600979 
  0.601026 
  0.600000 
  0.600106 
  0.600386 
  0.600603 
  0.600817 
  0.600979 
  0.601026 
  0.600000 
  0.600106 
  0.600386 
  0.600603 
  0.600817 
  0.600979 
  0.601026 
  0.600000 
  0.600106 
  0.600386 
  0.600603 
  0.600817 
  0.600979 
  0.601026 
  0.600000 
  0.600106 
  0.600386 
  0.600603 
  0.600817 
  0.600979 
  0.601026 
  0.600000 
  0.600106 
  0.600386 
  0.600603 
  0.600817 
  0.600979 
  0.601026 
  0.600000 
  0.600106 
  0.600386 
  0.600603 
  0.600817 
  0.600979 
  0.601026 
  0.600000 
  0.600106 
  0.600386 
  0.600603 
  0.600817 
  0.600979 
  0.601026 
  0.600000 
  0.600106 
  0.600386 
  0.600603 
  0.600817 
  0.600979 
  0.601026 
  0.600000 
  0.600106 
  0.600386 
  0.600603 
  0.600817 
  0.600979 
  0.601026 
  0.600000 
  0.600106 
  0.600386 
  0.600603 
  0.600817 
  0.600979 
  0.601026 
  0.600000 
  0.600106 
  0.600386 
  0.600603 
  0.600817 
  0.600979 
  0.601026 
  0.600000 
  0.600106 
  0.600386 
  0.600603 
  0.600817 
  0.600979 
  0.601026 
  0.600000 
  0.600106 
  0.600386 
  0.600603 
  0.600817 
  0.600979 
  0.601026 
  0.600000 
  0.600106 
  0.600386 
  0.600603 
  0.600817 
  0.600979 
  0.601026 
  0.600000 
  0.600106 
  0.600386 
  0.600603 
  0.600817 
  0.600979 
  0.601026 
  0.600000 
  0.600106 
  0.600386 
  0.600603 
  0.600817 
  0.600979 
  0.601026 
  0.600000 
  0.600106 
  0.600386 
  0.600603 
  0.600817 
  0.600979 
  0.601026 
  0.600000 
  0.600106 
  0.600386 
  0.600603 
  0.600817 
  0.600979 
  0.601026 
  0.600000 
  0.600106 
  0.600386 
  0.600603 
  0.600817 
  0.600979 
  0.601026 
  0.600000 
  0.600106 
  0.600386 
  0.600603 
  0.600817 
  0.600979 
  0.601026 
  0.600000 
  0.600106 
  0.600386 
  0.600603 
  0.600817 
  0.600979 
  0.601026 
  0.600000 
  0.600106 
  0.600386 
  0.600603 
  0.600817 
  0.600979 
  0.601026 
  0.600000 
  0.600106 
  0.600386 
  0.600603 
  0.600817 
  0.600979 
  0.601026 
  0.600000 
  0.600106 
  0.600386 
  0.600603 
  0.600817 
  0.600979 
  0.601026 
  0.600000 
  0.600106 
  0.600386 
  0.600603 
  0.600817 
  0.600979 
  0.601026 
  0.600000 
  0.600106 
  0.600386 
  0.600603 
  0.600817 
  0.600979 
  0.601026 
  0.600000 
  0.600106 
  0.600386 
  0.600603 
  0.600817 
  0.600979 
  0.601026 
  0.600000 
  0.600106 
  0.600386 
  0.600603 
  0.600817 
  0.600979 
  0.601026 
  0.600000 
  0.600106 
  0.600386 
  0.600603 
  0.600817 
  0.600979 
  0.601026 
  0.600000 
  0.600106 
  0.600386 
  0.600603 
  0.600817 
  0.600979 
  0.601026 
  0.600000 
  0.600106 
  0.600386 
  0.600603 
  0.600817 
  0.600979 
  0.601026 
  0.600000 
  0.600106 
  0.600386 
  0.600603 
  0.600817 
  0.600979 
  0.601026 
  0.600000 
  0.600106 
  0.600386 
  0.600603 
  0.600817 
  0.600979 
  0.601026 
  0.600000 
  0.600106 
  0.600386 
  0.600603 
  0.600817 
  0.600979 
  0.601026 
  0.600000 
  0.600106 
  0.600386 
  0.600603 
  0.600817 
  0.600979 
  0.601026 
  0.600000 
  0.600106 
  0.600386 
  0.600603 
  0.600817 
  0.600979 
  0.601026 
  0.600000 
  0.600106 
  0.600386 
  0.600603 
  0.600817 
  0.600979 
  0.601026 
  0.600000 
  0.600106 
  0.600386 
  0.600603 
  0.600817 
  0.600979 
  0.601026 
  0.600000 
  0.600106 
  0.600386 
  0.600603 
  0.600817 
  0.600979 
  0.601026 
  0.600000 
  0.600106 
  0.600386 
  0.600603 
  0.600817 
  0.600979 
  0.601026 
  0.600000 
  0.600106 
  0.600386 
  0.600603 
  0.600817 
  0.600979 
  0.601026 
  0.600000 
  0.600106 
  0.600386 
  0.600603 
  0.600817 
  0.600979 
  0.601026 
  0.600000 
  0.600106 
  0.600386 
  0.600603 
  0.600817 
  0.600979 
  0.601026 
  0.600000 
  0.600106 
  0.600386 
  0.600603 
  0.600817 
  0.600979 
  0.601026 
  0.600000 
  0.600106 
  0.600386 
  0.600603 
  0.600817 
  0.600979 
  0.601026 
  0.600000 
  0.600106 
  0.600386 
  0.600603 
  0.600817 
  0.600979 
  0.601026 
  0.600000 
  0.600106 
  0.600386 
  0.600603 
  0.600817 
  0.600979 
  0.601026 
  0.600000 
  0.600106 
  0.600386 
  0.600603 
  0.600817 
  0.600979 
  0.601026 
  0.600000 
  0.600106 
  0.600386 
  0.600603 
  0.600817 
  0.600979 
  0.601026 
  0.600000 
  0.600106 
  0.600386 
  0.600603 
  0.600817 
  0.600979 
  0.601026 
  0.600000 
  0.600106 
  0.600386 
  0.600603 
  0.600817 
  0.600979 
  0.601026 
  0.600000 
  0.600106 
  0.600386 
  0.600603 
  0.600817 
  0.600979 
  0.601026 
  0.600000 
  0.600106 
  0.600386 
  0.600603 
  0.600817 
  0.600979 
  0.601026 
  0.600000 
  0.600106 
  0.600386 
  0.600603 
  0.600817 
  0.600979 
  0.601026 
  0.600000 
  0.600106 
  0.600386 
  0.600603 
  0.600817 
  0.600979 
  0.601026 
  0.600000 
  0.600106 
  0.600386 
  0.600603 
  0.600817 
  0.600979 
  0.601026 
  0.600000 
  0.600106 
  0.600386 
  0.600603 
  0.600817 
  0.600979 
  0.601026 
  0.600000 
  0.600106 
  0.600386 
  0.600603 
  0.600817 
  0.600979 
  0.601026 
  0.600000 
  0.600106 
  0.600386 
  0.600603 
  0.600817 
  0.600979 
  0.601026 
  0.600000 
  0.600106 
  0.600386 
  0.600603 
  0.600817 
  0.600979 
  0.601026 
  0.600000 
  0.600106 
  0.600386 
  0.600603 
  0.600817 
  0.600979 
  0.601026 
  0.600000 
  0.600106 
  0.600386 
  0.600603 
  0.600817 
  0.600979 
  0.601026 
  0.600000 
  0.600106 
  0.600386 
  0.600603 
  0.600817 
  0.600979 
  0.601026 
  0.600000 
  0.600106 
  0.600386 
  0.600603 
  0.600817 
  0.600979 
  0.601026 
  0.600000 
  0.600106 
  0.600386 
  0.600603 
  0.600817 
  0.600979 
  0.601026 
  0.600000 
  0.600106 
  0.600386 
  0.600603 
  0.600817 
  0.600979 
  0.601026 
  0.600000 
  0.600106 
  0.600386 
  0.600603 
  0.600817 
  0.600979 
  0.601026 
  0.600000 
  0.600106 
  0.600386 
  0.600603 
  0.600817 
  0.600979 
  0.601026 
  0.600000 
  0.600106 
  0.600386 
  0.600603 
  0.600817 
  0.600979 
  0.601026 
  0.600000 
  0.600106 
  0.600386 
  0.600603 
  0.600817 
  0.600979 
  0.601026 
  0.600000 
  0.600106 
  0.600386 
  0.600603 
  0.600817 
  0.600979 
  0.601026 
  0.600000 
  0.600106 
  0.600386 
  0.600603 
  0.600817 
  0.600979 
  0.601026 
  0.600000 
  0.600106 
  0.600386 
  0.600603 
  0.600817 
  0.600979 
  0.601026 
  0.600000 
  0.600106 
  0.600386 
  0.600603 
  0.600817 
  0.600979 
  0.601026 
  0.600000 
  0.600106 
  0.600386 
  0.600603 
  0.600817 
  0.600979 
  0.601026 
  0.600000 
  0.600106 
  0.600386 
  0.600603 
  0.600817 
  0.600979 
  0.601026 
  0.600000 
  0.600106 
  0.600386 
  0.600603 
  0.600817 
  0.600979 
  0.601026 
  0.600000 
  0.600106 
  0.600386 
  0.600603 
  0.600817 
  0.600979 
  0.601026 
  0.600000 
  0.600106 
  0.600386 
  0.600603 
  0.600817 
  0.600979 
  0.601026 
  0.600000 
  0.600106 
  0.600386 
  0.600603 
  0.600817 
  0.600979 
  0.601026 
  0.600000 
  0.600106 
  0.600386 
  0.600603 
  0.600817 
  0.600979 
  0.601026 
  0.600000 
  0.600106 
  0.600386 
  0.600603 
  0.600817 
  0.600979 
  0.601026 
  0.600000 
  0.600106 
  0.600386 
  0.600603 
  0.600817 
  0.600979 
  0.601026 
  0.600000 
  0.600106 
  0.600386 
  0.600603 
  0.600817 
  0.600979 
  0.601026 
  0.600000 
  0.600106 
  0.600386 
  0.600603 
  0.600817 
  0.600979 
  0.601026 
  0.600000 
  0.600106 
  0.600386 
  0.600603 
  0.600817 
  0.600979 
  0.601026 
  0.600000 
  0.600106 
  0.600386 
  0.600603 
  0.600817 
  0.600979 
  0.601026 
  0.600000 
  0.600106 
  0.600386 
  0.600603 
  0.600817 
  0.600979 
  0.601026 
  0.600000 
  0.600106 
  0.600386 
  0.600603 
  0.600817 
  0.600979 
  0.601026 
  0.600000 
  0.600106 
  0.600386 
  0.600603 
  0.600817 
  0.600979 
  0.601026 
  0.600000 
  0.600106 
  0.600386 
  0.600603 
  0.600817 
  0.600979 
  0.601026 
  0.600000 
  0.600106 
  0.600386 
  0.600603 
  0.600817 
  0.600979 
  0.601026 
  0.600000 
  0.600106 
  0.600386 
  0.600603 
  0.600817 
  0.600979 
  0.601026 
  0.600000 
  0.600106 
  0.600386 
  0.600603 
  0.600817 
  0.600979 
  0.601026 
  0.600000 
  0.600106 
  0.600386 
  0.600603 
  0.600817 
  0.600979 
  0.601026 
  0.600000 
  0.600106 
  0.600386 
  0.600603 
  0.600817 
  0.600979 
  0.601026 
  0.600000 
  0.600106 
  0.600386 
  0.600603 
  0.600817 
  0.600979 
  0.601026 
  0.600000 
  0.600106 
  0.600386 
  0.600603 
  0.600817 
  0.600979 
  0.601026 
  0.600000 
  0.600106 
  0.600386 
  0.600603 
  0.600817 
  0.600979 
  0.601026 
  0.600000 
  0.600106 
  0.600386 
  0.600603 
  0.600817 
  0.600979 
  0.601026 
  0.600000 
  0.600106 
  0.600386 
  0.600603 
  0.600817 
  0.600979 
  0.601026 
  0.600000 
  0.600106 
  0.600386 
  0.600603 
  0.600817 
  0.600979 
  0.601026 
  0.600000 
  0.600106 
  0.600386 
  0.600603 
  0.600817 
  0.600979 
  0.601026 
  0.600000 
  0.600106 
  0.600386 
  0.600603 
  0.600817 
  0.600979 
  0.601026 
  0.600000 
  0.600106 
  0.600386 
  0.600603 
  0.600817 
  0.600979 
  0.601026 
  0.600000 
  0.600106 
  0.600386 
  0.600603 
  0.600817 
  0.600979 
  0.601026 
  0.600000 
  0.600106 
  0.600386 
  0.600603 
  0.600817 
  0.600979 
  0.601026 
  0.600000 
  0.600106 
  0.600386 
  0.600603 
  0.600817 
  0.600979 
  0.601026 
  0.600000 
  0.600106 
  0.600386 
  0.600603 
  0.600817 
  0.600979 
  0.601026 
  0.600000 
  0.600106 
  0.600386 
  0.600603 
  0.600817 
  0.600979 
  0.601026 
  0.600000 
  0.600106 
  0.600386 
  0.600603 
  0.600817 
  0.600979 
  0.601026 
  0.600000 
  0.600106 
  0.600386 
  0.600603 
  0.600817 
  0.600979 
  0.601026 
  0.600000 
  0.600106 
  0.600386 
  0.600603 
  0.600817 
  0.600979 
  0.601026 
  0.600000 
  0.600106 
  0.600386 
  0.600603 
  0.600817 
  0.600979 
  0.601026 
  0.600000 
  0.600106 
  0.600386 
  0.600603 
  0.600817 
  0.600979 
  0.601026 
  0.600000 
  0.600106 
  0.600386 
  0.600603 
  0.600817 
  0.600979 
  0.601026 
  0.600000 
  0.600106 
  0.600386 
  0.600603 
  0.600817 
  0.600979 
  0.601026 
  0.600000 
  0.600106 
  0.600386 
  0.600603 
  0.600817 
  0.600979 
  0.601026 
  0.600000 
  0.600106 
  0.600386 
  0.600603 
  0.600817 
  0.600979 
  0.601026 
  0.600000 
  0.600106 
  0.600386 
  0.600603 
  0.600817 
  0.600979 
  0.601026 
  0.600000 
  0.600106 
  0.600386 
  0.600603 
  0.600817 
  0.600979 
  0.601026 
  0.600000 
  0.600106 
  0.600386 
  0.600603 
  0.600817 
  0.600979 
  0.601026 
  0.600000 
  0.600106 
  0.600386 
  0.600603 
  0.600817 
  0.600979 
  0.601026 
  0.600000 
  0.600106 
  0.600386 
  0.600603 
  0.600817 
  0.600979 
  0.601026 
  0.600000 
  0.600106 
  0.600386 
  0.600603 
  0.600817 
  0.600979 
  0.601025 
  0.600000 
  0.600106 
  0.600386 
  0.600603 
  0.600817 
  0.600976 
  0.601022 
  0.600000 
  0.600106 
  0.600386 
  0.600602 
  0.600812 
  0.600970 
  0.601015 
  0.600000 
  0.600106 
  0.600386 
  0.600597 
  0.600802 
  0.600951 
  0.600994 
  0.600000 
  0.600106 
  0.600380 
  0.600582 
  0.600770 
  0.600902 
  0.600939 
  0.600000 
  0.600104 
  0.600353 
  0.600519 
  0.600653 
  0.600743 
  0.600766 
  0.600000 
  0.598167 
  0.593913 
  0.591094 
  0.588548 
  0.586807 
  0.586315 
  0.600000 
  0.598177 
  0.594095 
  0.591517 
  0.589334 
  0.587852 
  0.587451 
  0.600000 
  0.598177 
  0.594146 
  0.591634 
  0.589584 
  0.588215 
  0.587852 
  0.600000 
  0.598177 
  0.594149 
  0.591680 
  0.589642 
  0.588349 
  0.587996 
  0.600000 
  0.598177 
  0.594150 
  0.591679 
  0.589688 
  0.588374 
  0.588035 
  0.600000 
  0.598177 
  0.594150 
  0.591684 
  0.589680 
  0.588403 
  0.588059 
  0.600000 
  0.598177 
  0.594150 
  0.591684 
  0.589689 
  0.588397 
  0.588059 
  0.600000 
  0.598177 
  0.594150 
  0.591684 
  0.589687 
  0.588404 
  0.588063 
  0.600000 
  0.598177 
  0.594150 
  0.591684 
  0.589687 
  0.588402 
  0.588063 
  0.600000 
  0.598177 
  0.594150 
  0.591684 
  0.589687 
  0.588403 
  0.588063 
  0.600000 
  0.598177 
  0.594150 
  0.591684 
  0.589687 
  0.588403 
  0.588063 
  0.600000 
  0.598177 
  0.594150 
  0.591684 
  0.589687 
  0.588403 
  0.588063 
  0.600000 
  0.598177 
  0.594150 
  0.591684 
  0.589687 
  0.588403 
  0.588063 
  0.600000 
  0.598177 
  0.594150 
  0.591684 
  0.589687 
  0.588403 
  0.588063 
  0.600000 
  0.598177 
  0.594150 
  0.591684 
  0.589687 
  0.588403 
  0.588063 
  0.600000 
  0.598177 
  0.594150 
  0.591684 
  0.589687 
  0.588403 
  0.588063 
  0.600000 
  0.598177 
  0.594150 
  0.591684 
  0.589687 
  0.588403 
  0.588063 
  0.600000 
  0.598177 
  0.594150 
  0.591684 
  0.589687 
  0.588403 
  0.588063 
  0.600000 
  0.598177 
  0.594150 
  0.591684 
  0.589687 
  0.588403 
  0.588063 
  0.600000 
  0.598177 
  0.594150 
  0.591684 
  0.589687 
  0.588403 
  0.588063 
  0.600000 
  0.598177 
  0.594150 
  0.591684 
  0.589687 
  0.588403 
  0.588063 
  0.600000 
  0.598177 
  0.594150 
  0.591684 
  0.589687 
  0.588403 
  0.588063 
  0.600000 
  0.598177 
  0.594150 
  0.591684 
  0.589687 
  0.588403 
  0.588063 
  0.600000 
  0.598177 
  0.594150 
  0.591684 
  0.589687 
  0.588403 
  0.588063 
  0.600000 
  0.598177 
  0.594150 
  0.591684 
  0.589687 
  0.588403 
  0.588063 
  0.600000 
  0.598177 
  0.594150 
  0.591684 
  0.589687 
  0.588403 
  0.588063 
  0.600000 
  0.598177 
  0.594150 
  0.591684 
  0.589687 
  0.588403 
  0.588063 
  0.600000 
  0.598177 
  0.594150 
  0.591684 
  0.589687 
  0.588403 
  0.588063 
  0.600000 
  0.598177 
  0.594150 
  0.591684 
  0.589687 
  0.588403 
  0.588063 
  0.600000 
  0.598177 
  0.594150 
  0.591684 
  0.589687 
  0.588403 
  0.588063 
  0.600000 
  0.598177 
  0.594150 
  0.591684 
  0.589687 
  0.588403 
  0.588063 
  0.600000 
  0.598177 
  0.594150 
  0.591684 
  0.589687 
  0.588402 
  0.588063 
  0.600000 
  0.598177 
  0.594150 
  0.591684 
  0.589687 
  0.588404 
  0.588063 
  0.600000 
  0.598177 
  0.594150 
  0.591684 
  0.589688 
  0.588397 
  0.588059 
  0.600000 
  0.598177 
  0.594150 
  0.591684 
  0.589680 
  0.588403 
  0.588059 
  0.600000 
  0.598177 
  0.594150 
  0.591679 
  0.589688 
  0.588375 
  0.588036 
  0.600000 
  0.598177 
  0.594149 
  0.591680 
  0.589643 
  0.588351 
  0.587997 
  0.600000 
  0.598177 
  0.594146 
  0.591635 
  0.589586 
  0.588218 
  0.587856 
  0.600000 
  0.598177 
  0.594096 
  0.591519 
  0.589339 
  0.587860 
  0.587460 
  0.600000 
  0.598168 
  0.593922 
  0.591117 
  0.588592 
  0.586870 
  0.586384 
  0.600000 
  0.600105 
  0.600359 
  0.600534 
  0.600679 
  0.600779 
  0.600806 
  0.600000 
  0.600106 
  0.600380 
  0.600582 
  0.600770 
  0.600901 
  0.600937 
  0.600000 
  0.600106 
  0.600385 
  0.600597 
  0.600801 
  0.600951 
  0.600993 
  0.600000 
  0.600106 
  0.600386 
  0.600602 
  0.600812 
  0.600970 
  0.601014 
  0.600000 
  0.600106 
  0.600386 
  0.600603 
  0.600817 
  0.600976 
  0.601022 
  0.600000 
  0.600106 
  0.600386 
  0.600603 
  0.600817 
  0.600979 
  0.601025 
  0.600000 
  0.600106 
  0.600386 
  0.600603 
  0.600817 
  0.600979 
  0.601026 
  0.600000 
  0.600106 
  0.600386 
  0.600603 
  0.600817 
  0.600979 
  0.601026 
  0.600000 
  0.600106 
  0.600386 
  0.600603 
  0.600817 
  0.600979 
  0.601026 
  0.600000 
  0.600106 
  0.600386 
  0.600603 
  0.600817 
  0.600979 
  0.601026 
  0.600000 
  0.600106 
  0.600386 
  0.600603 
  0.600817 
  0.600979 
  0.601026 
  0.600000 
  0.600106 
  0.600386 
  0.600603 
  0.600817 
  0.600979 
  0.601026 
  0.600000 
  0.600106 
  0.600386 
  0.600603 
  0.600817 
  0.600979 
  0.601026 
  0.600000 
  0.600106 
  0.600386 
  0.600603 
  0.600817 
  0.600980 
  0.601026 
  0.600000 
  0.600106 
  0.600386 
  0.600603 
  0.600817 
  0.600980 
  0.601026 
  0.600000 
  0.600106 
  0.600386 
  0.600603 
  0.600818 
  0.600980 
  0.601027 
  0.600000 
  0.600106 
  0.600386 
  0.600604 
  0.600818 
  0.600981 
  0.601028 
  0.600000 
  0.600106 
  0.600386 
  0.600604 
  0.600820 
  0.600984 
  0.601032 
  0.600000 
  0.600106 
  0.600387 
  0.600606 
  0.600824 
  0.600990 
  0.601038 
  0.600000 
  0.600000 
  0.600000 
  0.600000 
  0.600000 
  0.600000 
  0.600000 
</DataArray>
<DataArray type='Float32' Name='CA' Format='ascii'> 
  0.300000 
  0.299876 
  0.299550 
  0.299296 
  0.299046 
  0.298857 
  0.298803 
  0.300000 
  0.299876 
  0.299550 
  0.299296 
  0.299046 
  0.298857 
  0.298803 
  0.300000 
  0.299876 
  0.299550 
  0.299296 
  0.299046 
  0.298857 
  0.298803 
  0.300000 
  0.299876 
  0.299550 
  0.299296 
  0.299046 
  0.298857 
  0.298803 
  0.300000 
  0.299876 
  0.299550 
  0.299296 
  0.299046 
  0.298857 
  0.298803 
  0.300000 
  0.299876 
  0.299550 
  0.299296 
  0.299046 
  0.298857 
  0.298803 
  0.300000 
  0.299876 
  0.299550 
  0.299296 
  0.299046 
  0.298857 
  0.298803 
  0.300000 
  0.299876 
  0.299550 
  0.299296 
  0.299046 
  0.298857 
  0.298803 
  0.300000 
  0.299876 
  0.299550 
  0.299296 
  0.299046 
  0.298857 
  0.298803 
  0.300000 
  0.299876 
  0.299550 
  0.299296 
  0.299046 
  0.298857 
  0.298803 
  0.300000 
  0.299876 
  0.299550 
  0.299296 
  0.299046 
  0.298857 
  0.298803 
  0.300000 
  0.299876 
  0.299550 
  0.299296 
  0.299046 
  0.298857 
  0.298803 
  0.300000 
  0.299876 
  0.299550 
  0.299296 
  0.299046 
  0.298857 
  0.298803 
  0.300000 
  0.299876 
  0.299550 
  0.299296 
  0.299046 
  0.298857 
  0.298803 
  0.300000 
  0.299876 
  0.299550 
  0.299296 
  0.299046 
  0.298857 
  0.298803 
  0.300000 
  0.299876 
  0.299550 
  0.299296 
  0.299046 
  0.298857 
  0.298803 
  0.300000 
  0.299876 
  0.299550 
  0.299296 
  0.299046 
  0.298857 
  0.298803 
  0.300000 
  0.299876 
  0.299550 
  0.299296 
  0.299046 
  0.298857 
  0.298803 
  0.300000 
  0.299876 
  0.299550 
  0.299296 
  0.299046 
  0.298857 
  0.298803 
  0.300000 
  0.299876 
  0.299550 
  0.299296 
  0.299046 
  0.298857 
  0.298803 
  0.300000 
  0.299876 
  0.299550 
  0.299296 
  0.299046 
  0.298857 
  0.298803 
  0.300000 
  0.299876 
  0.299550 
  0.299296 
  0.299046 
  0.298857 
  0.298803 
  0.300000 
  0.299876 
  0.299550 
  0.299296 
  0.299046 
  0.298857 
  0.298803 
  0.300000 
  0.299876 
  0.299550 
  0.299296 
  0.299046 
  0.298857 
  0.298803 
  0.300000 
  0.299876 
  0.299550 
  0.299296 
  0.299046 
  0.298857 
  0.298803 
  0.300000 
  0.299876 
  0.299550 
  0.299296 
  0.299046 
  0.298857 
  0.298803 
  0.300000 
  0.299876 
  0.299550 
  0.299296 
  0.299046 
  0.298857 
  0.298803 
  0.300000 
  0.299876 
  0.299550 
  0.299296 
  0.299046 
  0.298857 
  0.298803 
  0.300000 
  0.299876 
  0.299550 
  0.299296 
  0.299046 
  0.298857 
  0.298803 
  0.300000 
  0.299876 
  0.299550 
  0.299296 
  0.299046 
  0.298857 
  0.298803 
  0.300000 
  0.299876 
  0.299550 
  0.299296 
  0.299046 
  0.298857 
  0.298803 
  0.300000 
  0.299876 
  0.299550 
  0.299296 
  0.299046 
  0.298857 
  0.298803 
  0.300000 
  0.299876 
  0.299550 
  0.299296 
  0.299046 
  0.298857 
  0.298803 
  0.300000 
  0.299876 
  0.299550 
  0.299296 
  0.299046 
  0.298857 
  0.298803 
  0.300000 
  0.299876 
  0.299550 
  0.299296 
  0.299046 
  0.298857 
  0.298803 
  0.300000 
  0.299876 
  0.299550 
  0.299296 
  0.299046 
  0.298857 
  0.298803 
  0.300000 
  0.299876 